n -t 0 -s 0 -S DLABEL -l "Source/udp0" -L ""
n -t 0 -s 1 -S DLABEL -l "Source/udp1" -L ""
n -t 0 -s 2 -S DLABEL -l "Router" -L ""
n -t 0 -s 3 -S DLABEL -l "Destination/Null" -L ""
V -t * -v 1.0a5 -a 0
A -t * -n 1 -p 0 -o 0x7fffffff -c 30 -a 1
A -t * -h 1 -m 1073741823 -s 0
n -t * -a 0 -s 0 -S UP -v circle -c black -i black
n -t * -a 1 -s 1 -S UP -v circle -c black -i black
n -t * -a 2 -s 2 -S UP -v circle -c black -i black
n -t * -a 3 -s 3 -S UP -v circle -c black -i black
l -t * -s 0 -d 2 -S UP -r 250000 -D 0.02 -c black
l -t * -s 1 -d 2 -S UP -r 25000000 -D 0.02 -c black
l -t * -s 2 -d 3 -S UP -r 10000000 -D 0.02 -c black
+ -t 0.15 -s 1 -d 2 -p cbr -e 210 -c 0 -i 0 -a 0 -x {1.0 3.0 0 ------- null}
- -t 0.15 -s 1 -d 2 -p cbr -e 210 -c 0 -i 0 -a 0 -x {1.0 3.0 0 ------- null}
h -t 0.15 -s 1 -d 2 -p cbr -e 210 -c 0 -i 0 -a 0 -x {1.0 3.0 -1 ------- null}
+ -t 0.15375 -s 1 -d 2 -p cbr -e 210 -c 0 -i 1 -a 0 -x {1.0 3.0 1 ------- null}
- -t 0.15375 -s 1 -d 2 -p cbr -e 210 -c 0 -i 1 -a 0 -x {1.0 3.0 1 ------- null}
h -t 0.15375 -s 1 -d 2 -p cbr -e 210 -c 0 -i 1 -a 0 -x {1.0 3.0 -1 ------- null}
+ -t 0.1575 -s 1 -d 2 -p cbr -e 210 -c 0 -i 2 -a 0 -x {1.0 3.0 2 ------- null}
- -t 0.1575 -s 1 -d 2 -p cbr -e 210 -c 0 -i 2 -a 0 -x {1.0 3.0 2 ------- null}
h -t 0.1575 -s 1 -d 2 -p cbr -e 210 -c 0 -i 2 -a 0 -x {1.0 3.0 -1 ------- null}
+ -t 0.16125 -s 1 -d 2 -p cbr -e 210 -c 0 -i 3 -a 0 -x {1.0 3.0 3 ------- null}
- -t 0.16125 -s 1 -d 2 -p cbr -e 210 -c 0 -i 3 -a 0 -x {1.0 3.0 3 ------- null}
h -t 0.16125 -s 1 -d 2 -p cbr -e 210 -c 0 -i 3 -a 0 -x {1.0 3.0 -1 ------- null}
+ -t 0.165 -s 1 -d 2 -p cbr -e 210 -c 0 -i 4 -a 0 -x {1.0 3.0 4 ------- null}
- -t 0.165 -s 1 -d 2 -p cbr -e 210 -c 0 -i 4 -a 0 -x {1.0 3.0 4 ------- null}
h -t 0.165 -s 1 -d 2 -p cbr -e 210 -c 0 -i 4 -a 0 -x {1.0 3.0 -1 ------- null}
+ -t 0.16875 -s 1 -d 2 -p cbr -e 210 -c 0 -i 5 -a 0 -x {1.0 3.0 5 ------- null}
- -t 0.16875 -s 1 -d 2 -p cbr -e 210 -c 0 -i 5 -a 0 -x {1.0 3.0 5 ------- null}
h -t 0.16875 -s 1 -d 2 -p cbr -e 210 -c 0 -i 5 -a 0 -x {1.0 3.0 -1 ------- null}
r -t 0.1700672 -s 1 -d 2 -p cbr -e 210 -c 0 -i 0 -a 0 -x {1.0 3.0 0 ------- null}
+ -t 0.1700672 -s 2 -d 3 -p cbr -e 210 -c 0 -i 0 -a 0 -x {1.0 3.0 0 ------- null}
- -t 0.1700672 -s 2 -d 3 -p cbr -e 210 -c 0 -i 0 -a 0 -x {1.0 3.0 0 ------- null}
h -t 0.1700672 -s 2 -d 3 -p cbr -e 210 -c 0 -i 0 -a 0 -x {1.0 3.0 -1 ------- null}
+ -t 0.1725 -s 1 -d 2 -p cbr -e 210 -c 0 -i 6 -a 0 -x {1.0 3.0 6 ------- null}
- -t 0.1725 -s 1 -d 2 -p cbr -e 210 -c 0 -i 6 -a 0 -x {1.0 3.0 6 ------- null}
h -t 0.1725 -s 1 -d 2 -p cbr -e 210 -c 0 -i 6 -a 0 -x {1.0 3.0 -1 ------- null}
r -t 0.1738172 -s 1 -d 2 -p cbr -e 210 -c 0 -i 1 -a 0 -x {1.0 3.0 1 ------- null}
+ -t 0.1738172 -s 2 -d 3 -p cbr -e 210 -c 0 -i 1 -a 0 -x {1.0 3.0 1 ------- null}
- -t 0.1738172 -s 2 -d 3 -p cbr -e 210 -c 0 -i 1 -a 0 -x {1.0 3.0 1 ------- null}
h -t 0.1738172 -s 2 -d 3 -p cbr -e 210 -c 0 -i 1 -a 0 -x {1.0 3.0 -1 ------- null}
+ -t 0.17625 -s 1 -d 2 -p cbr -e 210 -c 0 -i 7 -a 0 -x {1.0 3.0 7 ------- null}
- -t 0.17625 -s 1 -d 2 -p cbr -e 210 -c 0 -i 7 -a 0 -x {1.0 3.0 7 ------- null}
h -t 0.17625 -s 1 -d 2 -p cbr -e 210 -c 0 -i 7 -a 0 -x {1.0 3.0 -1 ------- null}
r -t 0.1775672 -s 1 -d 2 -p cbr -e 210 -c 0 -i 2 -a 0 -x {1.0 3.0 2 ------- null}
+ -t 0.1775672 -s 2 -d 3 -p cbr -e 210 -c 0 -i 2 -a 0 -x {1.0 3.0 2 ------- null}
- -t 0.1775672 -s 2 -d 3 -p cbr -e 210 -c 0 -i 2 -a 0 -x {1.0 3.0 2 ------- null}
h -t 0.1775672 -s 2 -d 3 -p cbr -e 210 -c 0 -i 2 -a 0 -x {1.0 3.0 -1 ------- null}
+ -t 0.18 -s 1 -d 2 -p cbr -e 210 -c 0 -i 8 -a 0 -x {1.0 3.0 8 ------- null}
- -t 0.18 -s 1 -d 2 -p cbr -e 210 -c 0 -i 8 -a 0 -x {1.0 3.0 8 ------- null}
h -t 0.18 -s 1 -d 2 -p cbr -e 210 -c 0 -i 8 -a 0 -x {1.0 3.0 -1 ------- null}
r -t 0.1813172 -s 1 -d 2 -p cbr -e 210 -c 0 -i 3 -a 0 -x {1.0 3.0 3 ------- null}
+ -t 0.1813172 -s 2 -d 3 -p cbr -e 210 -c 0 -i 3 -a 0 -x {1.0 3.0 3 ------- null}
- -t 0.1813172 -s 2 -d 3 -p cbr -e 210 -c 0 -i 3 -a 0 -x {1.0 3.0 3 ------- null}
h -t 0.1813172 -s 2 -d 3 -p cbr -e 210 -c 0 -i 3 -a 0 -x {1.0 3.0 -1 ------- null}
+ -t 0.18375 -s 1 -d 2 -p cbr -e 210 -c 0 -i 9 -a 0 -x {1.0 3.0 9 ------- null}
- -t 0.18375 -s 1 -d 2 -p cbr -e 210 -c 0 -i 9 -a 0 -x {1.0 3.0 9 ------- null}
h -t 0.18375 -s 1 -d 2 -p cbr -e 210 -c 0 -i 9 -a 0 -x {1.0 3.0 -1 ------- null}
r -t 0.1850672 -s 1 -d 2 -p cbr -e 210 -c 0 -i 4 -a 0 -x {1.0 3.0 4 ------- null}
+ -t 0.1850672 -s 2 -d 3 -p cbr -e 210 -c 0 -i 4 -a 0 -x {1.0 3.0 4 ------- null}
- -t 0.1850672 -s 2 -d 3 -p cbr -e 210 -c 0 -i 4 -a 0 -x {1.0 3.0 4 ------- null}
h -t 0.1850672 -s 2 -d 3 -p cbr -e 210 -c 0 -i 4 -a 0 -x {1.0 3.0 -1 ------- null}
+ -t 0.1875 -s 1 -d 2 -p cbr -e 210 -c 0 -i 10 -a 0 -x {1.0 3.0 10 ------- null}
- -t 0.1875 -s 1 -d 2 -p cbr -e 210 -c 0 -i 10 -a 0 -x {1.0 3.0 10 ------- null}
h -t 0.1875 -s 1 -d 2 -p cbr -e 210 -c 0 -i 10 -a 0 -x {1.0 3.0 -1 ------- null}
r -t 0.1888172 -s 1 -d 2 -p cbr -e 210 -c 0 -i 5 -a 0 -x {1.0 3.0 5 ------- null}
+ -t 0.1888172 -s 2 -d 3 -p cbr -e 210 -c 0 -i 5 -a 0 -x {1.0 3.0 5 ------- null}
- -t 0.1888172 -s 2 -d 3 -p cbr -e 210 -c 0 -i 5 -a 0 -x {1.0 3.0 5 ------- null}
h -t 0.1888172 -s 2 -d 3 -p cbr -e 210 -c 0 -i 5 -a 0 -x {1.0 3.0 -1 ------- null}
r -t 0.1902352 -s 2 -d 3 -p cbr -e 210 -c 0 -i 0 -a 0 -x {1.0 3.0 0 ------- null}
+ -t 0.19125 -s 1 -d 2 -p cbr -e 210 -c 0 -i 11 -a 0 -x {1.0 3.0 11 ------- null}
- -t 0.19125 -s 1 -d 2 -p cbr -e 210 -c 0 -i 11 -a 0 -x {1.0 3.0 11 ------- null}
h -t 0.19125 -s 1 -d 2 -p cbr -e 210 -c 0 -i 11 -a 0 -x {1.0 3.0 -1 ------- null}
r -t 0.1925672 -s 1 -d 2 -p cbr -e 210 -c 0 -i 6 -a 0 -x {1.0 3.0 6 ------- null}
+ -t 0.1925672 -s 2 -d 3 -p cbr -e 210 -c 0 -i 6 -a 0 -x {1.0 3.0 6 ------- null}
- -t 0.1925672 -s 2 -d 3 -p cbr -e 210 -c 0 -i 6 -a 0 -x {1.0 3.0 6 ------- null}
h -t 0.1925672 -s 2 -d 3 -p cbr -e 210 -c 0 -i 6 -a 0 -x {1.0 3.0 -1 ------- null}
r -t 0.1939852 -s 2 -d 3 -p cbr -e 210 -c 0 -i 1 -a 0 -x {1.0 3.0 1 ------- null}
+ -t 0.195 -s 1 -d 2 -p cbr -e 210 -c 0 -i 12 -a 0 -x {1.0 3.0 12 ------- null}
- -t 0.195 -s 1 -d 2 -p cbr -e 210 -c 0 -i 12 -a 0 -x {1.0 3.0 12 ------- null}
h -t 0.195 -s 1 -d 2 -p cbr -e 210 -c 0 -i 12 -a 0 -x {1.0 3.0 -1 ------- null}
r -t 0.1963172 -s 1 -d 2 -p cbr -e 210 -c 0 -i 7 -a 0 -x {1.0 3.0 7 ------- null}
+ -t 0.1963172 -s 2 -d 3 -p cbr -e 210 -c 0 -i 7 -a 0 -x {1.0 3.0 7 ------- null}
- -t 0.1963172 -s 2 -d 3 -p cbr -e 210 -c 0 -i 7 -a 0 -x {1.0 3.0 7 ------- null}
h -t 0.1963172 -s 2 -d 3 -p cbr -e 210 -c 0 -i 7 -a 0 -x {1.0 3.0 -1 ------- null}
r -t 0.1977352 -s 2 -d 3 -p cbr -e 210 -c 0 -i 2 -a 0 -x {1.0 3.0 2 ------- null}
+ -t 0.19875 -s 1 -d 2 -p cbr -e 210 -c 0 -i 13 -a 0 -x {1.0 3.0 13 ------- null}
- -t 0.19875 -s 1 -d 2 -p cbr -e 210 -c 0 -i 13 -a 0 -x {1.0 3.0 13 ------- null}
h -t 0.19875 -s 1 -d 2 -p cbr -e 210 -c 0 -i 13 -a 0 -x {1.0 3.0 -1 ------- null}
r -t 0.2000672 -s 1 -d 2 -p cbr -e 210 -c 0 -i 8 -a 0 -x {1.0 3.0 8 ------- null}
+ -t 0.2000672 -s 2 -d 3 -p cbr -e 210 -c 0 -i 8 -a 0 -x {1.0 3.0 8 ------- null}
- -t 0.2000672 -s 2 -d 3 -p cbr -e 210 -c 0 -i 8 -a 0 -x {1.0 3.0 8 ------- null}
h -t 0.2000672 -s 2 -d 3 -p cbr -e 210 -c 0 -i 8 -a 0 -x {1.0 3.0 -1 ------- null}
r -t 0.2014852 -s 2 -d 3 -p cbr -e 210 -c 0 -i 3 -a 0 -x {1.0 3.0 3 ------- null}
+ -t 0.2025 -s 1 -d 2 -p cbr -e 210 -c 0 -i 14 -a 0 -x {1.0 3.0 14 ------- null}
- -t 0.2025 -s 1 -d 2 -p cbr -e 210 -c 0 -i 14 -a 0 -x {1.0 3.0 14 ------- null}
h -t 0.2025 -s 1 -d 2 -p cbr -e 210 -c 0 -i 14 -a 0 -x {1.0 3.0 -1 ------- null}
r -t 0.2038172 -s 1 -d 2 -p cbr -e 210 -c 0 -i 9 -a 0 -x {1.0 3.0 9 ------- null}
+ -t 0.2038172 -s 2 -d 3 -p cbr -e 210 -c 0 -i 9 -a 0 -x {1.0 3.0 9 ------- null}
- -t 0.2038172 -s 2 -d 3 -p cbr -e 210 -c 0 -i 9 -a 0 -x {1.0 3.0 9 ------- null}
h -t 0.2038172 -s 2 -d 3 -p cbr -e 210 -c 0 -i 9 -a 0 -x {1.0 3.0 -1 ------- null}
r -t 0.2052352 -s 2 -d 3 -p cbr -e 210 -c 0 -i 4 -a 0 -x {1.0 3.0 4 ------- null}
+ -t 0.20625 -s 1 -d 2 -p cbr -e 210 -c 0 -i 15 -a 0 -x {1.0 3.0 15 ------- null}
- -t 0.20625 -s 1 -d 2 -p cbr -e 210 -c 0 -i 15 -a 0 -x {1.0 3.0 15 ------- null}
h -t 0.20625 -s 1 -d 2 -p cbr -e 210 -c 0 -i 15 -a 0 -x {1.0 3.0 -1 ------- null}
r -t 0.2075672 -s 1 -d 2 -p cbr -e 210 -c 0 -i 10 -a 0 -x {1.0 3.0 10 ------- null}
+ -t 0.2075672 -s 2 -d 3 -p cbr -e 210 -c 0 -i 10 -a 0 -x {1.0 3.0 10 ------- null}
- -t 0.2075672 -s 2 -d 3 -p cbr -e 210 -c 0 -i 10 -a 0 -x {1.0 3.0 10 ------- null}
h -t 0.2075672 -s 2 -d 3 -p cbr -e 210 -c 0 -i 10 -a 0 -x {1.0 3.0 -1 ------- null}
r -t 0.2089852 -s 2 -d 3 -p cbr -e 210 -c 0 -i 5 -a 0 -x {1.0 3.0 5 ------- null}
+ -t 0.21 -s 1 -d 2 -p cbr -e 210 -c 0 -i 16 -a 0 -x {1.0 3.0 16 ------- null}
- -t 0.21 -s 1 -d 2 -p cbr -e 210 -c 0 -i 16 -a 0 -x {1.0 3.0 16 ------- null}
h -t 0.21 -s 1 -d 2 -p cbr -e 210 -c 0 -i 16 -a 0 -x {1.0 3.0 -1 ------- null}
r -t 0.2113172 -s 1 -d 2 -p cbr -e 210 -c 0 -i 11 -a 0 -x {1.0 3.0 11 ------- null}
+ -t 0.2113172 -s 2 -d 3 -p cbr -e 210 -c 0 -i 11 -a 0 -x {1.0 3.0 11 ------- null}
- -t 0.2113172 -s 2 -d 3 -p cbr -e 210 -c 0 -i 11 -a 0 -x {1.0 3.0 11 ------- null}
h -t 0.2113172 -s 2 -d 3 -p cbr -e 210 -c 0 -i 11 -a 0 -x {1.0 3.0 -1 ------- null}
r -t 0.2127352 -s 2 -d 3 -p cbr -e 210 -c 0 -i 6 -a 0 -x {1.0 3.0 6 ------- null}
+ -t 0.21375 -s 1 -d 2 -p cbr -e 210 -c 0 -i 17 -a 0 -x {1.0 3.0 17 ------- null}
- -t 0.21375 -s 1 -d 2 -p cbr -e 210 -c 0 -i 17 -a 0 -x {1.0 3.0 17 ------- null}
h -t 0.21375 -s 1 -d 2 -p cbr -e 210 -c 0 -i 17 -a 0 -x {1.0 3.0 -1 ------- null}
r -t 0.2150672 -s 1 -d 2 -p cbr -e 210 -c 0 -i 12 -a 0 -x {1.0 3.0 12 ------- null}
+ -t 0.2150672 -s 2 -d 3 -p cbr -e 210 -c 0 -i 12 -a 0 -x {1.0 3.0 12 ------- null}
- -t 0.2150672 -s 2 -d 3 -p cbr -e 210 -c 0 -i 12 -a 0 -x {1.0 3.0 12 ------- null}
h -t 0.2150672 -s 2 -d 3 -p cbr -e 210 -c 0 -i 12 -a 0 -x {1.0 3.0 -1 ------- null}
r -t 0.2164852 -s 2 -d 3 -p cbr -e 210 -c 0 -i 7 -a 0 -x {1.0 3.0 7 ------- null}
+ -t 0.2175 -s 1 -d 2 -p cbr -e 210 -c 0 -i 18 -a 0 -x {1.0 3.0 18 ------- null}
- -t 0.2175 -s 1 -d 2 -p cbr -e 210 -c 0 -i 18 -a 0 -x {1.0 3.0 18 ------- null}
h -t 0.2175 -s 1 -d 2 -p cbr -e 210 -c 0 -i 18 -a 0 -x {1.0 3.0 -1 ------- null}
r -t 0.2188172 -s 1 -d 2 -p cbr -e 210 -c 0 -i 13 -a 0 -x {1.0 3.0 13 ------- null}
+ -t 0.2188172 -s 2 -d 3 -p cbr -e 210 -c 0 -i 13 -a 0 -x {1.0 3.0 13 ------- null}
- -t 0.2188172 -s 2 -d 3 -p cbr -e 210 -c 0 -i 13 -a 0 -x {1.0 3.0 13 ------- null}
h -t 0.2188172 -s 2 -d 3 -p cbr -e 210 -c 0 -i 13 -a 0 -x {1.0 3.0 -1 ------- null}
r -t 0.2202352 -s 2 -d 3 -p cbr -e 210 -c 0 -i 8 -a 0 -x {1.0 3.0 8 ------- null}
+ -t 0.22125 -s 1 -d 2 -p cbr -e 210 -c 0 -i 19 -a 0 -x {1.0 3.0 19 ------- null}
- -t 0.22125 -s 1 -d 2 -p cbr -e 210 -c 0 -i 19 -a 0 -x {1.0 3.0 19 ------- null}
h -t 0.22125 -s 1 -d 2 -p cbr -e 210 -c 0 -i 19 -a 0 -x {1.0 3.0 -1 ------- null}
r -t 0.2225672 -s 1 -d 2 -p cbr -e 210 -c 0 -i 14 -a 0 -x {1.0 3.0 14 ------- null}
+ -t 0.2225672 -s 2 -d 3 -p cbr -e 210 -c 0 -i 14 -a 0 -x {1.0 3.0 14 ------- null}
- -t 0.2225672 -s 2 -d 3 -p cbr -e 210 -c 0 -i 14 -a 0 -x {1.0 3.0 14 ------- null}
h -t 0.2225672 -s 2 -d 3 -p cbr -e 210 -c 0 -i 14 -a 0 -x {1.0 3.0 -1 ------- null}
r -t 0.2239852 -s 2 -d 3 -p cbr -e 210 -c 0 -i 9 -a 0 -x {1.0 3.0 9 ------- null}
+ -t 0.225 -s 1 -d 2 -p cbr -e 210 -c 0 -i 20 -a 0 -x {1.0 3.0 20 ------- null}
- -t 0.225 -s 1 -d 2 -p cbr -e 210 -c 0 -i 20 -a 0 -x {1.0 3.0 20 ------- null}
h -t 0.225 -s 1 -d 2 -p cbr -e 210 -c 0 -i 20 -a 0 -x {1.0 3.0 -1 ------- null}
r -t 0.2263172 -s 1 -d 2 -p cbr -e 210 -c 0 -i 15 -a 0 -x {1.0 3.0 15 ------- null}
+ -t 0.2263172 -s 2 -d 3 -p cbr -e 210 -c 0 -i 15 -a 0 -x {1.0 3.0 15 ------- null}
- -t 0.2263172 -s 2 -d 3 -p cbr -e 210 -c 0 -i 15 -a 0 -x {1.0 3.0 15 ------- null}
h -t 0.2263172 -s 2 -d 3 -p cbr -e 210 -c 0 -i 15 -a 0 -x {1.0 3.0 -1 ------- null}
r -t 0.2277352 -s 2 -d 3 -p cbr -e 210 -c 0 -i 10 -a 0 -x {1.0 3.0 10 ------- null}
+ -t 0.22875 -s 1 -d 2 -p cbr -e 210 -c 0 -i 21 -a 0 -x {1.0 3.0 21 ------- null}
- -t 0.22875 -s 1 -d 2 -p cbr -e 210 -c 0 -i 21 -a 0 -x {1.0 3.0 21 ------- null}
h -t 0.22875 -s 1 -d 2 -p cbr -e 210 -c 0 -i 21 -a 0 -x {1.0 3.0 -1 ------- null}
r -t 0.2300672 -s 1 -d 2 -p cbr -e 210 -c 0 -i 16 -a 0 -x {1.0 3.0 16 ------- null}
+ -t 0.2300672 -s 2 -d 3 -p cbr -e 210 -c 0 -i 16 -a 0 -x {1.0 3.0 16 ------- null}
- -t 0.2300672 -s 2 -d 3 -p cbr -e 210 -c 0 -i 16 -a 0 -x {1.0 3.0 16 ------- null}
h -t 0.2300672 -s 2 -d 3 -p cbr -e 210 -c 0 -i 16 -a 0 -x {1.0 3.0 -1 ------- null}
r -t 0.2314852 -s 2 -d 3 -p cbr -e 210 -c 0 -i 11 -a 0 -x {1.0 3.0 11 ------- null}
+ -t 0.2325 -s 1 -d 2 -p cbr -e 210 -c 0 -i 22 -a 0 -x {1.0 3.0 22 ------- null}
- -t 0.2325 -s 1 -d 2 -p cbr -e 210 -c 0 -i 22 -a 0 -x {1.0 3.0 22 ------- null}
h -t 0.2325 -s 1 -d 2 -p cbr -e 210 -c 0 -i 22 -a 0 -x {1.0 3.0 -1 ------- null}
r -t 0.2338172 -s 1 -d 2 -p cbr -e 210 -c 0 -i 17 -a 0 -x {1.0 3.0 17 ------- null}
+ -t 0.2338172 -s 2 -d 3 -p cbr -e 210 -c 0 -i 17 -a 0 -x {1.0 3.0 17 ------- null}
- -t 0.2338172 -s 2 -d 3 -p cbr -e 210 -c 0 -i 17 -a 0 -x {1.0 3.0 17 ------- null}
h -t 0.2338172 -s 2 -d 3 -p cbr -e 210 -c 0 -i 17 -a 0 -x {1.0 3.0 -1 ------- null}
r -t 0.2352352 -s 2 -d 3 -p cbr -e 210 -c 0 -i 12 -a 0 -x {1.0 3.0 12 ------- null}
+ -t 0.23625 -s 1 -d 2 -p cbr -e 210 -c 0 -i 23 -a 0 -x {1.0 3.0 23 ------- null}
- -t 0.23625 -s 1 -d 2 -p cbr -e 210 -c 0 -i 23 -a 0 -x {1.0 3.0 23 ------- null}
h -t 0.23625 -s 1 -d 2 -p cbr -e 210 -c 0 -i 23 -a 0 -x {1.0 3.0 -1 ------- null}
r -t 0.2375672 -s 1 -d 2 -p cbr -e 210 -c 0 -i 18 -a 0 -x {1.0 3.0 18 ------- null}
+ -t 0.2375672 -s 2 -d 3 -p cbr -e 210 -c 0 -i 18 -a 0 -x {1.0 3.0 18 ------- null}
- -t 0.2375672 -s 2 -d 3 -p cbr -e 210 -c 0 -i 18 -a 0 -x {1.0 3.0 18 ------- null}
h -t 0.2375672 -s 2 -d 3 -p cbr -e 210 -c 0 -i 18 -a 0 -x {1.0 3.0 -1 ------- null}
r -t 0.2389852 -s 2 -d 3 -p cbr -e 210 -c 0 -i 13 -a 0 -x {1.0 3.0 13 ------- null}
+ -t 0.24 -s 1 -d 2 -p cbr -e 210 -c 0 -i 24 -a 0 -x {1.0 3.0 24 ------- null}
- -t 0.24 -s 1 -d 2 -p cbr -e 210 -c 0 -i 24 -a 0 -x {1.0 3.0 24 ------- null}
h -t 0.24 -s 1 -d 2 -p cbr -e 210 -c 0 -i 24 -a 0 -x {1.0 3.0 -1 ------- null}
r -t 0.2413172 -s 1 -d 2 -p cbr -e 210 -c 0 -i 19 -a 0 -x {1.0 3.0 19 ------- null}
+ -t 0.2413172 -s 2 -d 3 -p cbr -e 210 -c 0 -i 19 -a 0 -x {1.0 3.0 19 ------- null}
- -t 0.2413172 -s 2 -d 3 -p cbr -e 210 -c 0 -i 19 -a 0 -x {1.0 3.0 19 ------- null}
h -t 0.2413172 -s 2 -d 3 -p cbr -e 210 -c 0 -i 19 -a 0 -x {1.0 3.0 -1 ------- null}
r -t 0.2427352 -s 2 -d 3 -p cbr -e 210 -c 0 -i 14 -a 0 -x {1.0 3.0 14 ------- null}
+ -t 0.24375 -s 1 -d 2 -p cbr -e 210 -c 0 -i 25 -a 0 -x {1.0 3.0 25 ------- null}
- -t 0.24375 -s 1 -d 2 -p cbr -e 210 -c 0 -i 25 -a 0 -x {1.0 3.0 25 ------- null}
h -t 0.24375 -s 1 -d 2 -p cbr -e 210 -c 0 -i 25 -a 0 -x {1.0 3.0 -1 ------- null}
r -t 0.2450672 -s 1 -d 2 -p cbr -e 210 -c 0 -i 20 -a 0 -x {1.0 3.0 20 ------- null}
+ -t 0.2450672 -s 2 -d 3 -p cbr -e 210 -c 0 -i 20 -a 0 -x {1.0 3.0 20 ------- null}
- -t 0.2450672 -s 2 -d 3 -p cbr -e 210 -c 0 -i 20 -a 0 -x {1.0 3.0 20 ------- null}
h -t 0.2450672 -s 2 -d 3 -p cbr -e 210 -c 0 -i 20 -a 0 -x {1.0 3.0 -1 ------- null}
r -t 0.2464852 -s 2 -d 3 -p cbr -e 210 -c 0 -i 15 -a 0 -x {1.0 3.0 15 ------- null}
+ -t 0.2475 -s 1 -d 2 -p cbr -e 210 -c 0 -i 26 -a 0 -x {1.0 3.0 26 ------- null}
- -t 0.2475 -s 1 -d 2 -p cbr -e 210 -c 0 -i 26 -a 0 -x {1.0 3.0 26 ------- null}
h -t 0.2475 -s 1 -d 2 -p cbr -e 210 -c 0 -i 26 -a 0 -x {1.0 3.0 -1 ------- null}
r -t 0.2488172 -s 1 -d 2 -p cbr -e 210 -c 0 -i 21 -a 0 -x {1.0 3.0 21 ------- null}
+ -t 0.2488172 -s 2 -d 3 -p cbr -e 210 -c 0 -i 21 -a 0 -x {1.0 3.0 21 ------- null}
- -t 0.2488172 -s 2 -d 3 -p cbr -e 210 -c 0 -i 21 -a 0 -x {1.0 3.0 21 ------- null}
h -t 0.2488172 -s 2 -d 3 -p cbr -e 210 -c 0 -i 21 -a 0 -x {1.0 3.0 -1 ------- null}
r -t 0.2502352 -s 2 -d 3 -p cbr -e 210 -c 0 -i 16 -a 0 -x {1.0 3.0 16 ------- null}
+ -t 0.25125 -s 1 -d 2 -p cbr -e 210 -c 0 -i 27 -a 0 -x {1.0 3.0 27 ------- null}
- -t 0.25125 -s 1 -d 2 -p cbr -e 210 -c 0 -i 27 -a 0 -x {1.0 3.0 27 ------- null}
h -t 0.25125 -s 1 -d 2 -p cbr -e 210 -c 0 -i 27 -a 0 -x {1.0 3.0 -1 ------- null}
r -t 0.2525672 -s 1 -d 2 -p cbr -e 210 -c 0 -i 22 -a 0 -x {1.0 3.0 22 ------- null}
+ -t 0.2525672 -s 2 -d 3 -p cbr -e 210 -c 0 -i 22 -a 0 -x {1.0 3.0 22 ------- null}
- -t 0.2525672 -s 2 -d 3 -p cbr -e 210 -c 0 -i 22 -a 0 -x {1.0 3.0 22 ------- null}
h -t 0.2525672 -s 2 -d 3 -p cbr -e 210 -c 0 -i 22 -a 0 -x {1.0 3.0 -1 ------- null}
r -t 0.2539852 -s 2 -d 3 -p cbr -e 210 -c 0 -i 17 -a 0 -x {1.0 3.0 17 ------- null}
+ -t 0.255 -s 1 -d 2 -p cbr -e 210 -c 0 -i 28 -a 0 -x {1.0 3.0 28 ------- null}
- -t 0.255 -s 1 -d 2 -p cbr -e 210 -c 0 -i 28 -a 0 -x {1.0 3.0 28 ------- null}
h -t 0.255 -s 1 -d 2 -p cbr -e 210 -c 0 -i 28 -a 0 -x {1.0 3.0 -1 ------- null}
r -t 0.2563172 -s 1 -d 2 -p cbr -e 210 -c 0 -i 23 -a 0 -x {1.0 3.0 23 ------- null}
+ -t 0.2563172 -s 2 -d 3 -p cbr -e 210 -c 0 -i 23 -a 0 -x {1.0 3.0 23 ------- null}
- -t 0.2563172 -s 2 -d 3 -p cbr -e 210 -c 0 -i 23 -a 0 -x {1.0 3.0 23 ------- null}
h -t 0.2563172 -s 2 -d 3 -p cbr -e 210 -c 0 -i 23 -a 0 -x {1.0 3.0 -1 ------- null}
r -t 0.2577352 -s 2 -d 3 -p cbr -e 210 -c 0 -i 18 -a 0 -x {1.0 3.0 18 ------- null}
+ -t 0.25875 -s 1 -d 2 -p cbr -e 210 -c 0 -i 29 -a 0 -x {1.0 3.0 29 ------- null}
- -t 0.25875 -s 1 -d 2 -p cbr -e 210 -c 0 -i 29 -a 0 -x {1.0 3.0 29 ------- null}
h -t 0.25875 -s 1 -d 2 -p cbr -e 210 -c 0 -i 29 -a 0 -x {1.0 3.0 -1 ------- null}
r -t 0.2600672 -s 1 -d 2 -p cbr -e 210 -c 0 -i 24 -a 0 -x {1.0 3.0 24 ------- null}
+ -t 0.2600672 -s 2 -d 3 -p cbr -e 210 -c 0 -i 24 -a 0 -x {1.0 3.0 24 ------- null}
- -t 0.2600672 -s 2 -d 3 -p cbr -e 210 -c 0 -i 24 -a 0 -x {1.0 3.0 24 ------- null}
h -t 0.2600672 -s 2 -d 3 -p cbr -e 210 -c 0 -i 24 -a 0 -x {1.0 3.0 -1 ------- null}
r -t 0.2614852 -s 2 -d 3 -p cbr -e 210 -c 0 -i 19 -a 0 -x {1.0 3.0 19 ------- null}
+ -t 0.2625 -s 1 -d 2 -p cbr -e 210 -c 0 -i 30 -a 0 -x {1.0 3.0 30 ------- null}
- -t 0.2625 -s 1 -d 2 -p cbr -e 210 -c 0 -i 30 -a 0 -x {1.0 3.0 30 ------- null}
h -t 0.2625 -s 1 -d 2 -p cbr -e 210 -c 0 -i 30 -a 0 -x {1.0 3.0 -1 ------- null}
r -t 0.2638172 -s 1 -d 2 -p cbr -e 210 -c 0 -i 25 -a 0 -x {1.0 3.0 25 ------- null}
+ -t 0.2638172 -s 2 -d 3 -p cbr -e 210 -c 0 -i 25 -a 0 -x {1.0 3.0 25 ------- null}
- -t 0.2638172 -s 2 -d 3 -p cbr -e 210 -c 0 -i 25 -a 0 -x {1.0 3.0 25 ------- null}
h -t 0.2638172 -s 2 -d 3 -p cbr -e 210 -c 0 -i 25 -a 0 -x {1.0 3.0 -1 ------- null}
r -t 0.2652352 -s 2 -d 3 -p cbr -e 210 -c 0 -i 20 -a 0 -x {1.0 3.0 20 ------- null}
+ -t 0.26625 -s 1 -d 2 -p cbr -e 210 -c 0 -i 31 -a 0 -x {1.0 3.0 31 ------- null}
- -t 0.26625 -s 1 -d 2 -p cbr -e 210 -c 0 -i 31 -a 0 -x {1.0 3.0 31 ------- null}
h -t 0.26625 -s 1 -d 2 -p cbr -e 210 -c 0 -i 31 -a 0 -x {1.0 3.0 -1 ------- null}
r -t 0.2675672 -s 1 -d 2 -p cbr -e 210 -c 0 -i 26 -a 0 -x {1.0 3.0 26 ------- null}
+ -t 0.2675672 -s 2 -d 3 -p cbr -e 210 -c 0 -i 26 -a 0 -x {1.0 3.0 26 ------- null}
- -t 0.2675672 -s 2 -d 3 -p cbr -e 210 -c 0 -i 26 -a 0 -x {1.0 3.0 26 ------- null}
h -t 0.2675672 -s 2 -d 3 -p cbr -e 210 -c 0 -i 26 -a 0 -x {1.0 3.0 -1 ------- null}
r -t 0.2689852 -s 2 -d 3 -p cbr -e 210 -c 0 -i 21 -a 0 -x {1.0 3.0 21 ------- null}
+ -t 0.27 -s 1 -d 2 -p cbr -e 210 -c 0 -i 32 -a 0 -x {1.0 3.0 32 ------- null}
- -t 0.27 -s 1 -d 2 -p cbr -e 210 -c 0 -i 32 -a 0 -x {1.0 3.0 32 ------- null}
h -t 0.27 -s 1 -d 2 -p cbr -e 210 -c 0 -i 32 -a 0 -x {1.0 3.0 -1 ------- null}
r -t 0.2713172 -s 1 -d 2 -p cbr -e 210 -c 0 -i 27 -a 0 -x {1.0 3.0 27 ------- null}
+ -t 0.2713172 -s 2 -d 3 -p cbr -e 210 -c 0 -i 27 -a 0 -x {1.0 3.0 27 ------- null}
- -t 0.2713172 -s 2 -d 3 -p cbr -e 210 -c 0 -i 27 -a 0 -x {1.0 3.0 27 ------- null}
h -t 0.2713172 -s 2 -d 3 -p cbr -e 210 -c 0 -i 27 -a 0 -x {1.0 3.0 -1 ------- null}
r -t 0.2727352 -s 2 -d 3 -p cbr -e 210 -c 0 -i 22 -a 0 -x {1.0 3.0 22 ------- null}
+ -t 0.27375 -s 1 -d 2 -p cbr -e 210 -c 0 -i 33 -a 0 -x {1.0 3.0 33 ------- null}
- -t 0.27375 -s 1 -d 2 -p cbr -e 210 -c 0 -i 33 -a 0 -x {1.0 3.0 33 ------- null}
h -t 0.27375 -s 1 -d 2 -p cbr -e 210 -c 0 -i 33 -a 0 -x {1.0 3.0 -1 ------- null}
r -t 0.2750672 -s 1 -d 2 -p cbr -e 210 -c 0 -i 28 -a 0 -x {1.0 3.0 28 ------- null}
+ -t 0.2750672 -s 2 -d 3 -p cbr -e 210 -c 0 -i 28 -a 0 -x {1.0 3.0 28 ------- null}
- -t 0.2750672 -s 2 -d 3 -p cbr -e 210 -c 0 -i 28 -a 0 -x {1.0 3.0 28 ------- null}
h -t 0.2750672 -s 2 -d 3 -p cbr -e 210 -c 0 -i 28 -a 0 -x {1.0 3.0 -1 ------- null}
r -t 0.2764852 -s 2 -d 3 -p cbr -e 210 -c 0 -i 23 -a 0 -x {1.0 3.0 23 ------- null}
+ -t 0.2775 -s 1 -d 2 -p cbr -e 210 -c 0 -i 34 -a 0 -x {1.0 3.0 34 ------- null}
- -t 0.2775 -s 1 -d 2 -p cbr -e 210 -c 0 -i 34 -a 0 -x {1.0 3.0 34 ------- null}
h -t 0.2775 -s 1 -d 2 -p cbr -e 210 -c 0 -i 34 -a 0 -x {1.0 3.0 -1 ------- null}
r -t 0.2788172 -s 1 -d 2 -p cbr -e 210 -c 0 -i 29 -a 0 -x {1.0 3.0 29 ------- null}
+ -t 0.2788172 -s 2 -d 3 -p cbr -e 210 -c 0 -i 29 -a 0 -x {1.0 3.0 29 ------- null}
- -t 0.2788172 -s 2 -d 3 -p cbr -e 210 -c 0 -i 29 -a 0 -x {1.0 3.0 29 ------- null}
h -t 0.2788172 -s 2 -d 3 -p cbr -e 210 -c 0 -i 29 -a 0 -x {1.0 3.0 -1 ------- null}
r -t 0.2802352 -s 2 -d 3 -p cbr -e 210 -c 0 -i 24 -a 0 -x {1.0 3.0 24 ------- null}
+ -t 0.28125 -s 1 -d 2 -p cbr -e 210 -c 0 -i 35 -a 0 -x {1.0 3.0 35 ------- null}
- -t 0.28125 -s 1 -d 2 -p cbr -e 210 -c 0 -i 35 -a 0 -x {1.0 3.0 35 ------- null}
h -t 0.28125 -s 1 -d 2 -p cbr -e 210 -c 0 -i 35 -a 0 -x {1.0 3.0 -1 ------- null}
r -t 0.2825672 -s 1 -d 2 -p cbr -e 210 -c 0 -i 30 -a 0 -x {1.0 3.0 30 ------- null}
+ -t 0.2825672 -s 2 -d 3 -p cbr -e 210 -c 0 -i 30 -a 0 -x {1.0 3.0 30 ------- null}
- -t 0.2825672 -s 2 -d 3 -p cbr -e 210 -c 0 -i 30 -a 0 -x {1.0 3.0 30 ------- null}
h -t 0.2825672 -s 2 -d 3 -p cbr -e 210 -c 0 -i 30 -a 0 -x {1.0 3.0 -1 ------- null}
r -t 0.2839852 -s 2 -d 3 -p cbr -e 210 -c 0 -i 25 -a 0 -x {1.0 3.0 25 ------- null}
+ -t 0.285 -s 1 -d 2 -p cbr -e 210 -c 0 -i 36 -a 0 -x {1.0 3.0 36 ------- null}
- -t 0.285 -s 1 -d 2 -p cbr -e 210 -c 0 -i 36 -a 0 -x {1.0 3.0 36 ------- null}
h -t 0.285 -s 1 -d 2 -p cbr -e 210 -c 0 -i 36 -a 0 -x {1.0 3.0 -1 ------- null}
r -t 0.2863172 -s 1 -d 2 -p cbr -e 210 -c 0 -i 31 -a 0 -x {1.0 3.0 31 ------- null}
+ -t 0.2863172 -s 2 -d 3 -p cbr -e 210 -c 0 -i 31 -a 0 -x {1.0 3.0 31 ------- null}
- -t 0.2863172 -s 2 -d 3 -p cbr -e 210 -c 0 -i 31 -a 0 -x {1.0 3.0 31 ------- null}
h -t 0.2863172 -s 2 -d 3 -p cbr -e 210 -c 0 -i 31 -a 0 -x {1.0 3.0 -1 ------- null}
r -t 0.2877352 -s 2 -d 3 -p cbr -e 210 -c 0 -i 26 -a 0 -x {1.0 3.0 26 ------- null}
+ -t 0.28875 -s 1 -d 2 -p cbr -e 210 -c 0 -i 37 -a 0 -x {1.0 3.0 37 ------- null}
- -t 0.28875 -s 1 -d 2 -p cbr -e 210 -c 0 -i 37 -a 0 -x {1.0 3.0 37 ------- null}
h -t 0.28875 -s 1 -d 2 -p cbr -e 210 -c 0 -i 37 -a 0 -x {1.0 3.0 -1 ------- null}
r -t 0.2900672 -s 1 -d 2 -p cbr -e 210 -c 0 -i 32 -a 0 -x {1.0 3.0 32 ------- null}
+ -t 0.2900672 -s 2 -d 3 -p cbr -e 210 -c 0 -i 32 -a 0 -x {1.0 3.0 32 ------- null}
- -t 0.2900672 -s 2 -d 3 -p cbr -e 210 -c 0 -i 32 -a 0 -x {1.0 3.0 32 ------- null}
h -t 0.2900672 -s 2 -d 3 -p cbr -e 210 -c 0 -i 32 -a 0 -x {1.0 3.0 -1 ------- null}
r -t 0.2914852 -s 2 -d 3 -p cbr -e 210 -c 0 -i 27 -a 0 -x {1.0 3.0 27 ------- null}
+ -t 0.2925 -s 1 -d 2 -p cbr -e 210 -c 0 -i 38 -a 0 -x {1.0 3.0 38 ------- null}
- -t 0.2925 -s 1 -d 2 -p cbr -e 210 -c 0 -i 38 -a 0 -x {1.0 3.0 38 ------- null}
h -t 0.2925 -s 1 -d 2 -p cbr -e 210 -c 0 -i 38 -a 0 -x {1.0 3.0 -1 ------- null}
r -t 0.2938172 -s 1 -d 2 -p cbr -e 210 -c 0 -i 33 -a 0 -x {1.0 3.0 33 ------- null}
+ -t 0.2938172 -s 2 -d 3 -p cbr -e 210 -c 0 -i 33 -a 0 -x {1.0 3.0 33 ------- null}
- -t 0.2938172 -s 2 -d 3 -p cbr -e 210 -c 0 -i 33 -a 0 -x {1.0 3.0 33 ------- null}
h -t 0.2938172 -s 2 -d 3 -p cbr -e 210 -c 0 -i 33 -a 0 -x {1.0 3.0 -1 ------- null}
r -t 0.2952352 -s 2 -d 3 -p cbr -e 210 -c 0 -i 28 -a 0 -x {1.0 3.0 28 ------- null}
+ -t 0.29625 -s 1 -d 2 -p cbr -e 210 -c 0 -i 39 -a 0 -x {1.0 3.0 39 ------- null}
- -t 0.29625 -s 1 -d 2 -p cbr -e 210 -c 0 -i 39 -a 0 -x {1.0 3.0 39 ------- null}
h -t 0.29625 -s 1 -d 2 -p cbr -e 210 -c 0 -i 39 -a 0 -x {1.0 3.0 -1 ------- null}
r -t 0.2975672 -s 1 -d 2 -p cbr -e 210 -c 0 -i 34 -a 0 -x {1.0 3.0 34 ------- null}
+ -t 0.2975672 -s 2 -d 3 -p cbr -e 210 -c 0 -i 34 -a 0 -x {1.0 3.0 34 ------- null}
- -t 0.2975672 -s 2 -d 3 -p cbr -e 210 -c 0 -i 34 -a 0 -x {1.0 3.0 34 ------- null}
h -t 0.2975672 -s 2 -d 3 -p cbr -e 210 -c 0 -i 34 -a 0 -x {1.0 3.0 -1 ------- null}
r -t 0.2989852 -s 2 -d 3 -p cbr -e 210 -c 0 -i 29 -a 0 -x {1.0 3.0 29 ------- null}
+ -t 0.3 -s 1 -d 2 -p cbr -e 210 -c 0 -i 40 -a 0 -x {1.0 3.0 40 ------- null}
- -t 0.3 -s 1 -d 2 -p cbr -e 210 -c 0 -i 40 -a 0 -x {1.0 3.0 40 ------- null}
h -t 0.3 -s 1 -d 2 -p cbr -e 210 -c 0 -i 40 -a 0 -x {1.0 3.0 -1 ------- null}
+ -t 0.3 -s 0 -d 2 -p cbr -e 210 -c 0 -i 41 -a 0 -x {0.0 3.0 0 ------- null}
- -t 0.3 -s 0 -d 2 -p cbr -e 210 -c 0 -i 41 -a 0 -x {0.0 3.0 0 ------- null}
h -t 0.3 -s 0 -d 2 -p cbr -e 210 -c 0 -i 41 -a 0 -x {0.0 3.0 -1 ------- null}
r -t 0.3013172 -s 1 -d 2 -p cbr -e 210 -c 0 -i 35 -a 0 -x {1.0 3.0 35 ------- null}
+ -t 0.3013172 -s 2 -d 3 -p cbr -e 210 -c 0 -i 35 -a 0 -x {1.0 3.0 35 ------- null}
- -t 0.3013172 -s 2 -d 3 -p cbr -e 210 -c 0 -i 35 -a 0 -x {1.0 3.0 35 ------- null}
h -t 0.3013172 -s 2 -d 3 -p cbr -e 210 -c 0 -i 35 -a 0 -x {1.0 3.0 -1 ------- null}
r -t 0.3027352 -s 2 -d 3 -p cbr -e 210 -c 0 -i 30 -a 0 -x {1.0 3.0 30 ------- null}
+ -t 0.30375 -s 1 -d 2 -p cbr -e 210 -c 0 -i 42 -a 0 -x {1.0 3.0 41 ------- null}
- -t 0.30375 -s 1 -d 2 -p cbr -e 210 -c 0 -i 42 -a 0 -x {1.0 3.0 41 ------- null}
h -t 0.30375 -s 1 -d 2 -p cbr -e 210 -c 0 -i 42 -a 0 -x {1.0 3.0 -1 ------- null}
+ -t 0.30375 -s 0 -d 2 -p cbr -e 210 -c 0 -i 43 -a 0 -x {0.0 3.0 1 ------- null}
r -t 0.3050672 -s 1 -d 2 -p cbr -e 210 -c 0 -i 36 -a 0 -x {1.0 3.0 36 ------- null}
+ -t 0.3050672 -s 2 -d 3 -p cbr -e 210 -c 0 -i 36 -a 0 -x {1.0 3.0 36 ------- null}
- -t 0.3050672 -s 2 -d 3 -p cbr -e 210 -c 0 -i 36 -a 0 -x {1.0 3.0 36 ------- null}
h -t 0.3050672 -s 2 -d 3 -p cbr -e 210 -c 0 -i 36 -a 0 -x {1.0 3.0 -1 ------- null}
r -t 0.3064852 -s 2 -d 3 -p cbr -e 210 -c 0 -i 31 -a 0 -x {1.0 3.0 31 ------- null}
- -t 0.30672 -s 0 -d 2 -p cbr -e 210 -c 0 -i 43 -a 0 -x {0.0 3.0 1 ------- null}
h -t 0.30672 -s 0 -d 2 -p cbr -e 210 -c 0 -i 43 -a 0 -x {0.0 3.0 -1 ------- null}
+ -t 0.3075 -s 1 -d 2 -p cbr -e 210 -c 0 -i 44 -a 0 -x {1.0 3.0 42 ------- null}
- -t 0.3075 -s 1 -d 2 -p cbr -e 210 -c 0 -i 44 -a 0 -x {1.0 3.0 42 ------- null}
h -t 0.3075 -s 1 -d 2 -p cbr -e 210 -c 0 -i 44 -a 0 -x {1.0 3.0 -1 ------- null}
+ -t 0.3075 -s 0 -d 2 -p cbr -e 210 -c 0 -i 45 -a 0 -x {0.0 3.0 2 ------- null}
r -t 0.3088172 -s 1 -d 2 -p cbr -e 210 -c 0 -i 37 -a 0 -x {1.0 3.0 37 ------- null}
+ -t 0.3088172 -s 2 -d 3 -p cbr -e 210 -c 0 -i 37 -a 0 -x {1.0 3.0 37 ------- null}
- -t 0.3088172 -s 2 -d 3 -p cbr -e 210 -c 0 -i 37 -a 0 -x {1.0 3.0 37 ------- null}
h -t 0.3088172 -s 2 -d 3 -p cbr -e 210 -c 0 -i 37 -a 0 -x {1.0 3.0 -1 ------- null}
r -t 0.3102352 -s 2 -d 3 -p cbr -e 210 -c 0 -i 32 -a 0 -x {1.0 3.0 32 ------- null}
+ -t 0.31125 -s 1 -d 2 -p cbr -e 210 -c 0 -i 46 -a 0 -x {1.0 3.0 43 ------- null}
- -t 0.31125 -s 1 -d 2 -p cbr -e 210 -c 0 -i 46 -a 0 -x {1.0 3.0 43 ------- null}
h -t 0.31125 -s 1 -d 2 -p cbr -e 210 -c 0 -i 46 -a 0 -x {1.0 3.0 -1 ------- null}
+ -t 0.31125 -s 0 -d 2 -p cbr -e 210 -c 0 -i 47 -a 0 -x {0.0 3.0 3 ------- null}
r -t 0.3125672 -s 1 -d 2 -p cbr -e 210 -c 0 -i 38 -a 0 -x {1.0 3.0 38 ------- null}
+ -t 0.3125672 -s 2 -d 3 -p cbr -e 210 -c 0 -i 38 -a 0 -x {1.0 3.0 38 ------- null}
- -t 0.3125672 -s 2 -d 3 -p cbr -e 210 -c 0 -i 38 -a 0 -x {1.0 3.0 38 ------- null}
h -t 0.3125672 -s 2 -d 3 -p cbr -e 210 -c 0 -i 38 -a 0 -x {1.0 3.0 -1 ------- null}
- -t 0.31344 -s 0 -d 2 -p cbr -e 210 -c 0 -i 45 -a 0 -x {0.0 3.0 2 ------- null}
h -t 0.31344 -s 0 -d 2 -p cbr -e 210 -c 0 -i 45 -a 0 -x {0.0 3.0 -1 ------- null}
r -t 0.3139852 -s 2 -d 3 -p cbr -e 210 -c 0 -i 33 -a 0 -x {1.0 3.0 33 ------- null}
+ -t 0.315 -s 1 -d 2 -p cbr -e 210 -c 0 -i 48 -a 0 -x {1.0 3.0 44 ------- null}
- -t 0.315 -s 1 -d 2 -p cbr -e 210 -c 0 -i 48 -a 0 -x {1.0 3.0 44 ------- null}
h -t 0.315 -s 1 -d 2 -p cbr -e 210 -c 0 -i 48 -a 0 -x {1.0 3.0 -1 ------- null}
+ -t 0.315 -s 0 -d 2 -p cbr -e 210 -c 0 -i 49 -a 0 -x {0.0 3.0 4 ------- null}
r -t 0.3163172 -s 1 -d 2 -p cbr -e 210 -c 0 -i 39 -a 0 -x {1.0 3.0 39 ------- null}
+ -t 0.3163172 -s 2 -d 3 -p cbr -e 210 -c 0 -i 39 -a 0 -x {1.0 3.0 39 ------- null}
- -t 0.3163172 -s 2 -d 3 -p cbr -e 210 -c 0 -i 39 -a 0 -x {1.0 3.0 39 ------- null}
h -t 0.3163172 -s 2 -d 3 -p cbr -e 210 -c 0 -i 39 -a 0 -x {1.0 3.0 -1 ------- null}
r -t 0.3177352 -s 2 -d 3 -p cbr -e 210 -c 0 -i 34 -a 0 -x {1.0 3.0 34 ------- null}
+ -t 0.31875 -s 1 -d 2 -p cbr -e 210 -c 0 -i 50 -a 0 -x {1.0 3.0 45 ------- null}
- -t 0.31875 -s 1 -d 2 -p cbr -e 210 -c 0 -i 50 -a 0 -x {1.0 3.0 45 ------- null}
h -t 0.31875 -s 1 -d 2 -p cbr -e 210 -c 0 -i 50 -a 0 -x {1.0 3.0 -1 ------- null}
+ -t 0.31875 -s 0 -d 2 -p cbr -e 210 -c 0 -i 51 -a 0 -x {0.0 3.0 5 ------- null}
r -t 0.3200672 -s 1 -d 2 -p cbr -e 210 -c 0 -i 40 -a 0 -x {1.0 3.0 40 ------- null}
+ -t 0.3200672 -s 2 -d 3 -p cbr -e 210 -c 0 -i 40 -a 0 -x {1.0 3.0 40 ------- null}
- -t 0.3200672 -s 2 -d 3 -p cbr -e 210 -c 0 -i 40 -a 0 -x {1.0 3.0 40 ------- null}
h -t 0.3200672 -s 2 -d 3 -p cbr -e 210 -c 0 -i 40 -a 0 -x {1.0 3.0 -1 ------- null}
- -t 0.32016 -s 0 -d 2 -p cbr -e 210 -c 0 -i 47 -a 0 -x {0.0 3.0 3 ------- null}
h -t 0.32016 -s 0 -d 2 -p cbr -e 210 -c 0 -i 47 -a 0 -x {0.0 3.0 -1 ------- null}
r -t 0.3214852 -s 2 -d 3 -p cbr -e 210 -c 0 -i 35 -a 0 -x {1.0 3.0 35 ------- null}
+ -t 0.3225 -s 1 -d 2 -p cbr -e 210 -c 0 -i 52 -a 0 -x {1.0 3.0 46 ------- null}
- -t 0.3225 -s 1 -d 2 -p cbr -e 210 -c 0 -i 52 -a 0 -x {1.0 3.0 46 ------- null}
h -t 0.3225 -s 1 -d 2 -p cbr -e 210 -c 0 -i 52 -a 0 -x {1.0 3.0 -1 ------- null}
+ -t 0.3225 -s 0 -d 2 -p cbr -e 210 -c 0 -i 53 -a 0 -x {0.0 3.0 6 ------- null}