+ 0.15 1 2 cbr 210 ------- 0 1.0 3.0 0 0
- 0.15 1 2 cbr 210 ------- 0 1.0 3.0 0 0
+ 0.15375 1 2 cbr 210 ------- 0 1.0 3.0 1 1
- 0.15375 1 2 cbr 210 ------- 0 1.0 3.0 1 1
+ 0.1575 1 2 cbr 210 ------- 0 1.0 3.0 2 2
- 0.1575 1 2 cbr 210 ------- 0 1.0 3.0 2 2
+ 0.16125 1 2 cbr 210 ------- 0 1.0 3.0 3 3
- 0.16125 1 2 cbr 210 ------- 0 1.0 3.0 3 3
+ 0.165 1 2 cbr 210 ------- 0 1.0 3.0 4 4
- 0.165 1 2 cbr 210 ------- 0 1.0 3.0 4 4
+ 0.16875 1 2 cbr 210 ------- 0 1.0 3.0 5 5
- 0.16875 1 2 cbr 210 ------- 0 1.0 3.0 5 5
r 0.170067 1 2 cbr 210 ------- 0 1.0 3.0 0 0
+ 0.170067 2 3 cbr 210 ------- 0 1.0 3.0 0 0
- 0.170067 2 3 cbr 210 ------- 0 1.0 3.0 0 0
+ 0.1725 1 2 cbr 210 ------- 0 1.0 3.0 6 6
- 0.1725 1 2 cbr 210 ------- 0 1.0 3.0 6 6
r 0.173817 1 2 cbr 210 ------- 0 1.0 3.0 1 1
+ 0.173817 2 3 cbr 210 ------- 0 1.0 3.0 1 1
- 0.173817 2 3 cbr 210 ------- 0 1.0 3.0 1 1
+ 0.17625 1 2 cbr 210 ------- 0 1.0 3.0 7 7
- 0.17625 1 2 cbr 210 ------- 0 1.0 3.0 7 7
r 0.177567 1 2 cbr 210 ------- 0 1.0 3.0 2 2
+ 0.177567 2 3 cbr 210 ------- 0 1.0 3.0 2 2
- 0.177567 2 3 cbr 210 ------- 0 1.0 3.0 2 2
+ 0.18 1 2 cbr 210 ------- 0 1.0 3.0 8 8
- 0.18 1 2 cbr 210 ------- 0 1.0 3.0 8 8
r 0.181317 1 2 cbr 210 ------- 0 1.0 3.0 3 3
+ 0.181317 2 3 cbr 210 ------- 0 1.0 3.0 3 3
- 0.181317 2 3 cbr 210 ------- 0 1.0 3.0 3 3
+ 0.18375 1 2 cbr 210 ------- 0 1.0 3.0 9 9
- 0.18375 1 2 cbr 210 ------- 0 1.0 3.0 9 9
r 0.185067 1 2 cbr 210 ------- 0 1.0 3.0 4 4
+ 0.185067 2 3 cbr 210 ------- 0 1.0 3.0 4 4
- 0.185067 2 3 cbr 210 ------- 0 1.0 3.0 4 4
+ 0.1875 1 2 cbr 210 ------- 0 1.0 3.0 10 10
- 0.1875 1 2 cbr 210 ------- 0 1.0 3.0 10 10
r 0.188817 1 2 cbr 210 ------- 0 1.0 3.0 5 5
+ 0.188817 2 3 cbr 210 ------- 0 1.0 3.0 5 5
- 0.188817 2 3 cbr 210 ------- 0 1.0 3.0 5 5
r 0.190235 2 3 cbr 210 ------- 0 1.0 3.0 0 0
+ 0.19125 1 2 cbr 210 ------- 0 1.0 3.0 11 11
- 0.19125 1 2 cbr 210 ------- 0 1.0 3.0 11 11
r 0.192567 1 2 cbr 210 ------- 0 1.0 3.0 6 6
+ 0.192567 2 3 cbr 210 ------- 0 1.0 3.0 6 6
- 0.192567 2 3 cbr 210 ------- 0 1.0 3.0 6 6
r 0.193985 2 3 cbr 210 ------- 0 1.0 3.0 1 1
+ 0.195 1 2 cbr 210 ------- 0 1.0 3.0 12 12
- 0.195 1 2 cbr 210 ------- 0 1.0 3.0 12 12
r 0.196317 1 2 cbr 210 ------- 0 1.0 3.0 7 7
+ 0.196317 2 3 cbr 210 ------- 0 1.0 3.0 7 7
- 0.196317 2 3 cbr 210 ------- 0 1.0 3.0 7 7
r 0.197735 2 3 cbr 210 ------- 0 1.0 3.0 2 2
+ 0.19875 1 2 cbr 210 ------- 0 1.0 3.0 13 13
- 0.19875 1 2 cbr 210 ------- 0 1.0 3.0 13 13
r 0.200067 1 2 cbr 210 ------- 0 1.0 3.0 8 8
+ 0.200067 2 3 cbr 210 ------- 0 1.0 3.0 8 8
- 0.200067 2 3 cbr 210 ------- 0 1.0 3.0 8 8
r 0.201485 2 3 cbr 210 ------- 0 1.0 3.0 3 3
+ 0.2025 1 2 cbr 210 ------- 0 1.0 3.0 14 14
- 0.2025 1 2 cbr 210 ------- 0 1.0 3.0 14 14
r 0.203817 1 2 cbr 210 ------- 0 1.0 3.0 9 9
+ 0.203817 2 3 cbr 210 ------- 0 1.0 3.0 9 9
- 0.203817 2 3 cbr 210 ------- 0 1.0 3.0 9 9
r 0.205235 2 3 cbr 210 ------- 0 1.0 3.0 4 4
+ 0.20625 1 2 cbr 210 ------- 0 1.0 3.0 15 15
- 0.20625 1 2 cbr 210 ------- 0 1.0 3.0 15 15
r 0.207567 1 2 cbr 210 ------- 0 1.0 3.0 10 10
+ 0.207567 2 3 cbr 210 ------- 0 1.0 3.0 10 10
- 0.207567 2 3 cbr 210 ------- 0 1.0 3.0 10 10
r 0.208985 2 3 cbr 210 ------- 0 1.0 3.0 5 5
+ 0.21 1 2 cbr 210 ------- 0 1.0 3.0 16 16
- 0.21 1 2 cbr 210 ------- 0 1.0 3.0 16 16
r 0.211317 1 2 cbr 210 ------- 0 1.0 3.0 11 11
+ 0.211317 2 3 cbr 210 ------- 0 1.0 3.0 11 11
- 0.211317 2 3 cbr 210 ------- 0 1.0 3.0 11 11
r 0.212735 2 3 cbr 210 ------- 0 1.0 3.0 6 6
+ 0.21375 1 2 cbr 210 ------- 0 1.0 3.0 17 17
- 0.21375 1 2 cbr 210 ------- 0 1.0 3.0 17 17
r 0.215067 1 2 cbr 210 ------- 0 1.0 3.0 12 12
+ 0.215067 2 3 cbr 210 ------- 0 1.0 3.0 12 12
- 0.215067 2 3 cbr 210 ------- 0 1.0 3.0 12 12
r 0.216485 2 3 cbr 210 ------- 0 1.0 3.0 7 7
+ 0.2175 1 2 cbr 210 ------- 0 1.0 3.0 18 18
- 0.2175 1 2 cbr 210 ------- 0 1.0 3.0 18 18
r 0.218817 1 2 cbr 210 ------- 0 1.0 3.0 13 13
+ 0.218817 2 3 cbr 210 ------- 0 1.0 3.0 13 13
- 0.218817 2 3 cbr 210 ------- 0 1.0 3.0 13 13
r 0.220235 2 3 cbr 210 ------- 0 1.0 3.0 8 8
+ 0.22125 1 2 cbr 210 ------- 0 1.0 3.0 19 19
- 0.22125 1 2 cbr 210 ------- 0 1.0 3.0 19 19
r 0.222567 1 2 cbr 210 ------- 0 1.0 3.0 14 14
+ 0.222567 2 3 cbr 210 ------- 0 1.0 3.0 14 14
- 0.222567 2 3 cbr 210 ------- 0 1.0 3.0 14 14
r 0.223985 2 3 cbr 210 ------- 0 1.0 3.0 9 9
+ 0.225 1 2 cbr 210 ------- 0 1.0 3.0 20 20
- 0.225 1 2 cbr 210 ------- 0 1.0 3.0 20 20
r 0.226317 1 2 cbr 210 ------- 0 1.0 3.0 15 15
+ 0.226317 2 3 cbr 210 ------- 0 1.0 3.0 15 15
- 0.226317 2 3 cbr 210 ------- 0 1.0 3.0 15 15
r 0.227735 2 3 cbr 210 ------- 0 1.0 3.0 10 10
+ 0.22875 1 2 cbr 210 ------- 0 1.0 3.0 21 21
- 0.22875 1 2 cbr 210 ------- 0 1.0 3.0 21 21
r 0.230067 1 2 cbr 210 ------- 0 1.0 3.0 16 16
+ 0.230067 2 3 cbr 210 ------- 0 1.0 3.0 16 16
- 0.230067 2 3 cbr 210 ------- 0 1.0 3.0 16 16
r 0.231485 2 3 cbr 210 ------- 0 1.0 3.0 11 11
+ 0.2325 1 2 cbr 210 ------- 0 1.0 3.0 22 22
- 0.2325 1 2 cbr 210 ------- 0 1.0 3.0 22 22
r 0.233817 1 2 cbr 210 ------- 0 1.0 3.0 17 17
+ 0.233817 2 3 cbr 210 ------- 0 1.0 3.0 17 17
- 0.233817 2 3 cbr 210 ------- 0 1.0 3.0 17 17
r 0.235235 2 3 cbr 210 ------- 0 1.0 3.0 12 12
+ 0.23625 1 2 cbr 210 ------- 0 1.0 3.0 23 23
- 0.23625 1 2 cbr 210 ------- 0 1.0 3.0 23 23
r 0.237567 1 2 cbr 210 ------- 0 1.0 3.0 18 18
+ 0.237567 2 3 cbr 210 ------- 0 1.0 3.0 18 18
- 0.237567 2 3 cbr 210 ------- 0 1.0 3.0 18 18
r 0.238985 2 3 cbr 210 ------- 0 1.0 3.0 13 13
+ 0.24 1 2 cbr 210 ------- 0 1.0 3.0 24 24
- 0.24 1 2 cbr 210 ------- 0 1.0 3.0 24 24
r 0.241317 1 2 cbr 210 ------- 0 1.0 3.0 19 19
+ 0.241317 2 3 cbr 210 ------- 0 1.0 3.0 19 19
- 0.241317 2 3 cbr 210 ------- 0 1.0 3.0 19 19
r 0.242735 2 3 cbr 210 ------- 0 1.0 3.0 14 14
+ 0.24375 1 2 cbr 210 ------- 0 1.0 3.0 25 25
- 0.24375 1 2 cbr 210 ------- 0 1.0 3.0 25 25
r 0.245067 1 2 cbr 210 ------- 0 1.0 3.0 20 20
+ 0.245067 2 3 cbr 210 ------- 0 1.0 3.0 20 20
- 0.245067 2 3 cbr 210 ------- 0 1.0 3.0 20 20
r 0.246485 2 3 cbr 210 ------- 0 1.0 3.0 15 15
+ 0.2475 1 2 cbr 210 ------- 0 1.0 3.0 26 26
- 0.2475 1 2 cbr 210 ------- 0 1.0 3.0 26 26
r 0.248817 1 2 cbr 210 ------- 0 1.0 3.0 21 21
+ 0.248817 2 3 cbr 210 ------- 0 1.0 3.0 21 21
- 0.248817 2 3 cbr 210 ------- 0 1.0 3.0 21 21
r 0.250235 2 3 cbr 210 ------- 0 1.0 3.0 16 16
+ 0.25125 1 2 cbr 210 ------- 0 1.0 3.0 27 27
- 0.25125 1 2 cbr 210 ------- 0 1.0 3.0 27 27
r 0.252567 1 2 cbr 210 ------- 0 1.0 3.0 22 22
+ 0.252567 2 3 cbr 210 ------- 0 1.0 3.0 22 22
- 0.252567 2 3 cbr 210 ------- 0 1.0 3.0 22 22
r 0.253985 2 3 cbr 210 ------- 0 1.0 3.0 17 17
+ 0.255 1 2 cbr 210 ------- 0 1.0 3.0 28 28
- 0.255 1 2 cbr 210 ------- 0 1.0 3.0 28 28
r 0.256317 1 2 cbr 210 ------- 0 1.0 3.0 23 23
+ 0.256317 2 3 cbr 210 ------- 0 1.0 3.0 23 23
- 0.256317 2 3 cbr 210 ------- 0 1.0 3.0 23 23
r 0.257735 2 3 cbr 210 ------- 0 1.0 3.0 18 18
+ 0.25875 1 2 cbr 210 ------- 0 1.0 3.0 29 29
- 0.25875 1 2 cbr 210 ------- 0 1.0 3.0 29 29
r 0.260067 1 2 cbr 210 ------- 0 1.0 3.0 24 24
+ 0.260067 2 3 cbr 210 ------- 0 1.0 3.0 24 24
- 0.260067 2 3 cbr 210 ------- 0 1.0 3.0 24 24
r 0.261485 2 3 cbr 210 ------- 0 1.0 3.0 19 19
+ 0.2625 1 2 cbr 210 ------- 0 1.0 3.0 30 30
- 0.2625 1 2 cbr 210 ------- 0 1.0 3.0 30 30
r 0.263817 1 2 cbr 210 ------- 0 1.0 3.0 25 25
+ 0.263817 2 3 cbr 210 ------- 0 1.0 3.0 25 25
- 0.263817 2 3 cbr 210 ------- 0 1.0 3.0 25 25
r 0.265235 2 3 cbr 210 ------- 0 1.0 3.0 20 20
+ 0.26625 1 2 cbr 210 ------- 0 1.0 3.0 31 31
- 0.26625 1 2 cbr 210 ------- 0 1.0 3.0 31 31
r 0.267567 1 2 cbr 210 ------- 0 1.0 3.0 26 26
+ 0.267567 2 3 cbr 210 ------- 0 1.0 3.0 26 26
- 0.267567 2 3 cbr 210 ------- 0 1.0 3.0 26 26
r 0.268985 2 3 cbr 210 ------- 0 1.0 3.0 21 21
+ 0.27 1 2 cbr 210 ------- 0 1.0 3.0 32 32
- 0.27 1 2 cbr 210 ------- 0 1.0 3.0 32 32
r 0.271317 1 2 cbr 210 ------- 0 1.0 3.0 27 27
+ 0.271317 2 3 cbr 210 ------- 0 1.0 3.0 27 27
- 0.271317 2 3 cbr 210 ------- 0 1.0 3.0 27 27
r 0.272735 2 3 cbr 210 ------- 0 1.0 3.0 22 22
+ 0.27375 1 2 cbr 210 ------- 0 1.0 3.0 33 33
- 0.27375 1 2 cbr 210 ------- 0 1.0 3.0 33 33
r 0.275067 1 2 cbr 210 ------- 0 1.0 3.0 28 28
+ 0.275067 2 3 cbr 210 ------- 0 1.0 3.0 28 28
- 0.275067 2 3 cbr 210 ------- 0 1.0 3.0 28 28
r 0.276485 2 3 cbr 210 ------- 0 1.0 3.0 23 23
+ 0.2775 1 2 cbr 210 ------- 0 1.0 3.0 34 34
- 0.2775 1 2 cbr 210 ------- 0 1.0 3.0 34 34
r 0.278817 1 2 cbr 210 ------- 0 1.0 3.0 29 29
+ 0.278817 2 3 cbr 210 ------- 0 1.0 3.0 29 29
- 0.278817 2 3 cbr 210 ------- 0 1.0 3.0 29 29
r 0.280235 2 3 cbr 210 ------- 0 1.0 3.0 24 24
+ 0.28125 1 2 cbr 210 ------- 0 1.0 3.0 35 35
- 0.28125 1 2 cbr 210 ------- 0 1.0 3.0 35 35
r 0.282567 1 2 cbr 210 ------- 0 1.0 3.0 30 30
+ 0.282567 2 3 cbr 210 ------- 0 1.0 3.0 30 30
- 0.282567 2 3 cbr 210 ------- 0 1.0 3.0 30 30
r 0.283985 2 3 cbr 210 ------- 0 1.0 3.0 25 25
+ 0.285 1 2 cbr 210 ------- 0 1.0 3.0 36 36
- 0.285 1 2 cbr 210 ------- 0 1.0 3.0 36 36
r 0.286317 1 2 cbr 210 ------- 0 1.0 3.0 31 31
+ 0.286317 2 3 cbr 210 ------- 0 1.0 3.0 31 31
- 0.286317 2 3 cbr 210 ------- 0 1.0 3.0 31 31
r 0.287735 2 3 cbr 210 ------- 0 1.0 3.0 26 26
+ 0.28875 1 2 cbr 210 ------- 0 1.0 3.0 37 37
- 0.28875 1 2 cbr 210 ------- 0 1.0 3.0 37 37
r 0.290067 1 2 cbr 210 ------- 0 1.0 3.0 32 32
+ 0.290067 2 3 cbr 210 ------- 0 1.0 3.0 32 32
- 0.290067 2 3 cbr 210 ------- 0 1.0 3.0 32 32
r 0.291485 2 3 cbr 210 ------- 0 1.0 3.0 27 27
+ 0.2925 1 2 cbr 210 ------- 0 1.0 3.0 38 38
- 0.2925 1 2 cbr 210 ------- 0 1.0 3.0 38 38
r 0.293817 1 2 cbr 210 ------- 0 1.0 3.0 33 33
+ 0.293817 2 3 cbr 210 ------- 0 1.0 3.0 33 33
- 0.293817 2 3 cbr 210 ------- 0 1.0 3.0 33 33
r 0.295235 2 3 cbr 210 ------- 0 1.0 3.0 28 28
+ 0.29625 1 2 cbr 210 ------- 0 1.0 3.0 39 39
- 0.29625 1 2 cbr 210 ------- 0 1.0 3.0 39 39
r 0.297567 1 2 cbr 210 ------- 0 1.0 3.0 34 34
+ 0.297567 2 3 cbr 210 ------- 0 1.0 3.0 34 34
- 0.297567 2 3 cbr 210 ------- 0 1.0 3.0 34 34
r 0.298985 2 3 cbr 210 ------- 0 1.0 3.0 29 29
+ 0.3 1 2 cbr 210 ------- 0 1.0 3.0 40 40
- 0.3 1 2 cbr 210 ------- 0 1.0 3.0 40 40
+ 0.3 0 2 cbr 210 ------- 0 0.0 3.0 0 41
- 0.3 0 2 cbr 210 ------- 0 0.0 3.0 0 41
r 0.301317 1 2 cbr 210 ------- 0 1.0 3.0 35 35
+ 0.301317 2 3 cbr 210 ------- 0 1.0 3.0 35 35
- 0.301317 2 3 cbr 210 ------- 0 1.0 3.0 35 35
r 0.302735 2 3 cbr 210 ------- 0 1.0 3.0 30 30
+ 0.30375 1 2 cbr 210 ------- 0 1.0 3.0 41 42
- 0.30375 1 2 cbr 210 ------- 0 1.0 3.0 41 42
+ 0.30375 0 2 cbr 210 ------- 0 0.0 3.0 1 43
r 0.305067 1 2 cbr 210 ------- 0 1.0 3.0 36 36
+ 0.305067 2 3 cbr 210 ------- 0 1.0 3.0 36 36
- 0.305067 2 3 cbr 210 ------- 0 1.0 3.0 36 36
r 0.306485 2 3 cbr 210 ------- 0 1.0 3.0 31 31
- 0.30672 0 2 cbr 210 ------- 0 0.0 3.0 1 43
+ 0.3075 1 2 cbr 210 ------- 0 1.0 3.0 42 44
- 0.3075 1 2 cbr 210 ------- 0 1.0 3.0 42 44
+ 0.3075 0 2 cbr 210 ------- 0 0.0 3.0 2 45
r 0.308817 1 2 cbr 210 ------- 0 1.0 3.0 37 37
+ 0.308817 2 3 cbr 210 ------- 0 1.0 3.0 37 37
- 0.308817 2 3 cbr 210 ------- 0 1.0 3.0 37 37
r 0.310235 2 3 cbr 210 ------- 0 1.0 3.0 32 32
+ 0.31125 1 2 cbr 210 ------- 0 1.0 3.0 43 46
- 0.31125 1 2 cbr 210 ------- 0 1.0 3.0 43 46
+ 0.31125 0 2 cbr 210 ------- 0 0.0 3.0 3 47
r 0.312567 1 2 cbr 210 ------- 0 1.0 3.0 38 38
+ 0.312567 2 3 cbr 210 ------- 0 1.0 3.0 38 38
- 0.312567 2 3 cbr 210 ------- 0 1.0 3.0 38 38
- 0.31344 0 2 cbr 210 ------- 0 0.0 3.0 2 45
r 0.313985 2 3 cbr 210 ------- 0 1.0 3.0 33 33
+ 0.315 1 2 cbr 210 ------- 0 1.0 3.0 44 48
- 0.315 1 2 cbr 210 ------- 0 1.0 3.0 44 48
+ 0.315 0 2 cbr 210 ------- 0 0.0 3.0 4 49
r 0.316317 1 2 cbr 210 ------- 0 1.0 3.0 39 39
+ 0.316317 2 3 cbr 210 ------- 0 1.0 3.0 39 39
- 0.316317 2 3 cbr 210 ------- 0 1.0 3.0 39 39
r 0.317735 2 3 cbr 210 ------- 0 1.0 3.0 34 34
+ 0.31875 1 2 cbr 210 ------- 0 1.0 3.0 45 50
- 0.31875 1 2 cbr 210 ------- 0 1.0 3.0 45 50
+ 0.31875 0 2 cbr 210 ------- 0 0.0 3.0 5 51
r 0.320067 1 2 cbr 210 ------- 0 1.0 3.0 40 40
+ 0.320067 2 3 cbr 210 ------- 0 1.0 3.0 40 40
- 0.320067 2 3 cbr 210 ------- 0 1.0 3.0 40 40
- 0.32016 0 2 cbr 210 ------- 0 0.0 3.0 3 47
r 0.321485 2 3 cbr 210 ------- 0 1.0 3.0 35 35
+ 0.3225 1 2 cbr 210 ------- 0 1.0 3.0 46 52
- 0.3225 1 2 cbr 210 ------- 0 1.0 3.0 46 52
+ 0.3225 0 2 cbr 210 ------- 0 0.0 3.0 6 53
r 0.323817 1 2 cbr 210 ------- 0 1.0 3.0 41 42
+ 0.323817 2 3 cbr 210 ------- 0 1.0 3.0 41 42
- 0.323817 2 3 cbr 210 ------- 0 1.0 3.0 41 42
r 0.325235 2 3 cbr 210 ------- 0 1.0 3.0 36 36
+ 0.32625 1 2 cbr 210 ------- 0 1.0 3.0 47 54
- 0.32625 1 2 cbr 210 ------- 0 1.0 3.0 47 54
+ 0.32625 0 2 cbr 210 ------- 0 0.0 3.0 7 55
r 0.32672 0 2 cbr 210 ------- 0 0.0 3.0 0 41
+ 0.32672 2 3 cbr 210 ------- 0 0.0 3.0 0 41
- 0.32672 2 3 cbr 210 ------- 0 0.0 3.0 0 41
- 0.32688 0 2 cbr 210 ------- 0 0.0 3.0 4 49
r 0.327567 1 2 cbr 210 ------- 0 1.0 3.0 42 44
+ 0.327567 2 3 cbr 210 ------- 0 1.0 3.0 42 44
- 0.327567 2 3 cbr 210 ------- 0 1.0 3.0 42 44
r 0.328985 2 3 cbr 210 ------- 0 1.0 3.0 37 37
+ 0.33 1 2 cbr 210 ------- 0 1.0 3.0 48 56
- 0.33 1 2 cbr 210 ------- 0 1.0 3.0 48 56
+ 0.33 0 2 cbr 210 ------- 0 0.0 3.0 8 57
r 0.331317 1 2 cbr 210 ------- 0 1.0 3.0 43 46
+ 0.331317 2 3 cbr 210 ------- 0 1.0 3.0 43 46
- 0.331317 2 3 cbr 210 ------- 0 1.0 3.0 43 46
r 0.332735 2 3 cbr 210 ------- 0 1.0 3.0 38 38
r 0.33344 0 2 cbr 210 ------- 0 0.0 3.0 1 43
+ 0.33344 2 3 cbr 210 ------- 0 0.0 3.0 1 43
- 0.33344 2 3 cbr 210 ------- 0 0.0 3.0 1 43
- 0.3336 0 2 cbr 210 ------- 0 0.0 3.0 5 51
+ 0.33375 1 2 cbr 210 ------- 0 1.0 3.0 49 58
- 0.33375 1 2 cbr 210 ------- 0 1.0 3.0 49 58
+ 0.33375 0 2 cbr 210 ------- 0 0.0 3.0 9 59
r 0.335067 1 2 cbr 210 ------- 0 1.0 3.0 44 48
+ 0.335067 2 3 cbr 210 ------- 0 1.0 3.0 44 48
- 0.335067 2 3 cbr 210 ------- 0 1.0 3.0 44 48
r 0.336485 2 3 cbr 210 ------- 0 1.0 3.0 39 39
+ 0.3375 1 2 cbr 210 ------- 0 1.0 3.0 50 60
- 0.3375 1 2 cbr 210 ------- 0 1.0 3.0 50 60
+ 0.3375 0 2 cbr 210 ------- 0 0.0 3.0 10 61
r 0.338817 1 2 cbr 210 ------- 0 1.0 3.0 45 50
+ 0.338817 2 3 cbr 210 ------- 0 1.0 3.0 45 50
- 0.338817 2 3 cbr 210 ------- 0 1.0 3.0 45 50
r 0.34016 0 2 cbr 210 ------- 0 0.0 3.0 2 45
+ 0.34016 2 3 cbr 210 ------- 0 0.0 3.0 2 45
- 0.34016 2 3 cbr 210 ------- 0 0.0 3.0 2 45
r 0.340235 2 3 cbr 210 ------- 0 1.0 3.0 40 40
- 0.34032 0 2 cbr 210 ------- 0 0.0 3.0 6 53
+ 0.34125 1 2 cbr 210 ------- 0 1.0 3.0 51 62
- 0.34125 1 2 cbr 210 ------- 0 1.0 3.0 51 62
+ 0.34125 0 2 cbr 210 ------- 0 0.0 3.0 11 63
r 0.342567 1 2 cbr 210 ------- 0 1.0 3.0 46 52
+ 0.342567 2 3 cbr 210 ------- 0 1.0 3.0 46 52
- 0.342567 2 3 cbr 210 ------- 0 1.0 3.0 46 52
r 0.343985 2 3 cbr 210 ------- 0 1.0 3.0 41 42
+ 0.345 1 2 cbr 210 ------- 0 1.0 3.0 52 64
- 0.345 1 2 cbr 210 ------- 0 1.0 3.0 52 64
+ 0.345 0 2 cbr 210 ------- 0 0.0 3.0 12 65
r 0.346317 1 2 cbr 210 ------- 0 1.0 3.0 47 54
+ 0.346317 2 3 cbr 210 ------- 0 1.0 3.0 47 54
- 0.346317 2 3 cbr 210 ------- 0 1.0 3.0 47 54
r 0.34688 0 2 cbr 210 ------- 0 0.0 3.0 3 47
+ 0.34688 2 3 cbr 210 ------- 0 0.0 3.0 3 47
- 0.34688 2 3 cbr 210 ------- 0 0.0 3.0 3 47
r 0.346888 2 3 cbr 210 ------- 0 0.0 3.0 0 41
- 0.34704 0 2 cbr 210 ------- 0 0.0 3.0 7 55
r 0.347735 2 3 cbr 210 ------- 0 1.0 3.0 42 44
+ 0.34875 1 2 cbr 210 ------- 0 1.0 3.0 53 66
- 0.34875 1 2 cbr 210 ------- 0 1.0 3.0 53 66
+ 0.34875 0 2 cbr 210 ------- 0 0.0 3.0 13 67
r 0.350067 1 2 cbr 210 ------- 0 1.0 3.0 48 56
+ 0.350067 2 3 cbr 210 ------- 0 1.0 3.0 48 56
- 0.350067 2 3 cbr 210 ------- 0 1.0 3.0 48 56
r 0.351485 2 3 cbr 210 ------- 0 1.0 3.0 43 46
+ 0.3525 1 2 cbr 210 ------- 0 1.0 3.0 54 68
- 0.3525 1 2 cbr 210 ------- 0 1.0 3.0 54 68
+ 0.3525 0 2 cbr 210 ------- 0 0.0 3.0 14 69
r 0.3536 0 2 cbr 210 ------- 0 0.0 3.0 4 49
+ 0.3536 2 3 cbr 210 ------- 0 0.0 3.0 4 49
- 0.3536 2 3 cbr 210 ------- 0 0.0 3.0 4 49
r 0.353608 2 3 cbr 210 ------- 0 0.0 3.0 1 43
- 0.35376 0 2 cbr 210 ------- 0 0.0 3.0 8 57
r 0.353817 1 2 cbr 210 ------- 0 1.0 3.0 49 58
+ 0.353817 2 3 cbr 210 ------- 0 1.0 3.0 49 58
- 0.353817 2 3 cbr 210 ------- 0 1.0 3.0 49 58
r 0.355235 2 3 cbr 210 ------- 0 1.0 3.0 44 48
+ 0.35625 1 2 cbr 210 ------- 0 1.0 3.0 55 70
- 0.35625 1 2 cbr 210 ------- 0 1.0 3.0 55 70
+ 0.35625 0 2 cbr 210 ------- 0 0.0 3.0 15 71
r 0.357567 1 2 cbr 210 ------- 0 1.0 3.0 50 60
+ 0.357567 2 3 cbr 210 ------- 0 1.0 3.0 50 60
- 0.357567 2 3 cbr 210 ------- 0 1.0 3.0 50 60
r 0.358985 2 3 cbr 210 ------- 0 1.0 3.0 45 50
+ 0.36 1 2 cbr 210 ------- 0 1.0 3.0 56 72
- 0.36 1 2 cbr 210 ------- 0 1.0 3.0 56 72
+ 0.36 0 2 cbr 210 ------- 0 0.0 3.0 16 73
r 0.36032 0 2 cbr 210 ------- 0 0.0 3.0 5 51
+ 0.36032 2 3 cbr 210 ------- 0 0.0 3.0 5 51
- 0.36032 2 3 cbr 210 ------- 0 0.0 3.0 5 51
r 0.360328 2 3 cbr 210 ------- 0 0.0 3.0 2 45
- 0.36048 0 2 cbr 210 ------- 0 0.0 3.0 9 59
r 0.361317 1 2 cbr 210 ------- 0 1.0 3.0 51 62
+ 0.361317 2 3 cbr 210 ------- 0 1.0 3.0 51 62
- 0.361317 2 3 cbr 210 ------- 0 1.0 3.0 51 62
r 0.362735 2 3 cbr 210 ------- 0 1.0 3.0 46 52
+ 0.36375 1 2 cbr 210 ------- 0 1.0 3.0 57 74
- 0.36375 1 2 cbr 210 ------- 0 1.0 3.0 57 74
+ 0.36375 0 2 cbr 210 ------- 0 0.0 3.0 17 75
r 0.365067 1 2 cbr 210 ------- 0 1.0 3.0 52 64
+ 0.365067 2 3 cbr 210 ------- 0 1.0 3.0 52 64
- 0.365067 2 3 cbr 210 ------- 0 1.0 3.0 52 64
r 0.366485 2 3 cbr 210 ------- 0 1.0 3.0 47 54
r 0.36704 0 2 cbr 210 ------- 0 0.0 3.0 6 53
+ 0.36704 2 3 cbr 210 ------- 0 0.0 3.0 6 53
- 0.36704 2 3 cbr 210 ------- 0 0.0 3.0 6 53
r 0.367048 2 3 cbr 210 ------- 0 0.0 3.0 3 47
- 0.3672 0 2 cbr 210 ------- 0 0.0 3.0 10 61
+ 0.3675 1 2 cbr 210 ------- 0 1.0 3.0 58 76
- 0.3675 1 2 cbr 210 ------- 0 1.0 3.0 58 76
+ 0.3675 0 2 cbr 210 ------- 0 0.0 3.0 18 77
r 0.368817 1 2 cbr 210 ------- 0 1.0 3.0 53 66
+ 0.368817 2 3 cbr 210 ------- 0 1.0 3.0 53 66
- 0.368817 2 3 cbr 210 ------- 0 1.0 3.0 53 66
r 0.370235 2 3 cbr 210 ------- 0 1.0 3.0 48 56
+ 0.37125 1 2 cbr 210 ------- 0 1.0 3.0 59 78
- 0.37125 1 2 cbr 210 ------- 0 1.0 3.0 59 78
+ 0.37125 0 2 cbr 210 ------- 0 0.0 3.0 19 79
r 0.372567 1 2 cbr 210 ------- 0 1.0 3.0 54 68
+ 0.372567 2 3 cbr 210 ------- 0 1.0 3.0 54 68
- 0.372567 2 3 cbr 210 ------- 0 1.0 3.0 54 68
r 0.37376 0 2 cbr 210 ------- 0 0.0 3.0 7 55
+ 0.37376 2 3 cbr 210 ------- 0 0.0 3.0 7 55
- 0.37376 2 3 cbr 210 ------- 0 0.0 3.0 7 55
r 0.373768 2 3 cbr 210 ------- 0 0.0 3.0 4 49
- 0.37392 0 2 cbr 210 ------- 0 0.0 3.0 11 63
r 0.373985 2 3 cbr 210 ------- 0 1.0 3.0 49 58
+ 0.375 1 2 cbr 210 ------- 0 1.0 3.0 60 80
- 0.375 1 2 cbr 210 ------- 0 1.0 3.0 60 80
+ 0.375 0 2 cbr 210 ------- 0 0.0 3.0 20 81
r 0.376317 1 2 cbr 210 ------- 0 1.0 3.0 55 70
+ 0.376317 2 3 cbr 210 ------- 0 1.0 3.0 55 70
- 0.376317 2 3 cbr 210 ------- 0 1.0 3.0 55 70
r 0.377735 2 3 cbr 210 ------- 0 1.0 3.0 50 60
+ 0.37875 1 2 cbr 210 ------- 0 1.0 3.0 61 82
- 0.37875 1 2 cbr 210 ------- 0 1.0 3.0 61 82
+ 0.37875 0 2 cbr 210 ------- 0 0.0 3.0 21 83
r 0.380067 1 2 cbr 210 ------- 0 1.0 3.0 56 72
+ 0.380067 2 3 cbr 210 ------- 0 1.0 3.0 56 72
- 0.380067 2 3 cbr 210 ------- 0 1.0 3.0 56 72
r 0.38048 0 2 cbr 210 ------- 0 0.0 3.0 8 57
+ 0.38048 2 3 cbr 210 ------- 0 0.0 3.0 8 57
- 0.38048 2 3 cbr 210 ------- 0 0.0 3.0 8 57
r 0.380488 2 3 cbr 210 ------- 0 0.0 3.0 5 51
- 0.38064 0 2 cbr 210 ------- 0 0.0 3.0 12 65
r 0.381485 2 3 cbr 210 ------- 0 1.0 3.0 51 62
+ 0.3825 1 2 cbr 210 ------- 0 1.0 3.0 62 84
- 0.3825 1 2 cbr 210 ------- 0 1.0 3.0 62 84
+ 0.3825 0 2 cbr 210 ------- 0 0.0 3.0 22 85
r 0.383817 1 2 cbr 210 ------- 0 1.0 3.0 57 74
+ 0.383817 2 3 cbr 210 ------- 0 1.0 3.0 57 74
- 0.383817 2 3 cbr 210 ------- 0 1.0 3.0 57 74
r 0.385235 2 3 cbr 210 ------- 0 1.0 3.0 52 64
+ 0.38625 1 2 cbr 210 ------- 0 1.0 3.0 63 86
- 0.38625 1 2 cbr 210 ------- 0 1.0 3.0 63 86
+ 0.38625 0 2 cbr 210 ------- 0 0.0 3.0 23 87
r 0.3872 0 2 cbr 210 ------- 0 0.0 3.0 9 59
+ 0.3872 2 3 cbr 210 ------- 0 0.0 3.0 9 59
- 0.3872 2 3 cbr 210 ------- 0 0.0 3.0 9 59
r 0.387208 2 3 cbr 210 ------- 0 0.0 3.0 6 53
- 0.38736 0 2 cbr 210 ------- 0 0.0 3.0 13 67
r 0.387567 1 2 cbr 210 ------- 0 1.0 3.0 58 76
+ 0.387567 2 3 cbr 210 ------- 0 1.0 3.0 58 76
- 0.387567 2 3 cbr 210 ------- 0 1.0 3.0 58 76
r 0.388985 2 3 cbr 210 ------- 0 1.0 3.0 53 66
+ 0.39 1 2 cbr 210 ------- 0 1.0 3.0 64 88
- 0.39 1 2 cbr 210 ------- 0 1.0 3.0 64 88
+ 0.39 0 2 cbr 210 ------- 0 0.0 3.0 24 89
r 0.391317 1 2 cbr 210 ------- 0 1.0 3.0 59 78
+ 0.391317 2 3 cbr 210 ------- 0 1.0 3.0 59 78
- 0.391317 2 3 cbr 210 ------- 0 1.0 3.0 59 78
r 0.392735 2 3 cbr 210 ------- 0 1.0 3.0 54 68
+ 0.39375 1 2 cbr 210 ------- 0 1.0 3.0 65 90
- 0.39375 1 2 cbr 210 ------- 0 1.0 3.0 65 90
+ 0.39375 0 2 cbr 210 ------- 0 0.0 3.0 25 91
r 0.39392 0 2 cbr 210 ------- 0 0.0 3.0 10 61
+ 0.39392 2 3 cbr 210 ------- 0 0.0 3.0 10 61
- 0.39392 2 3 cbr 210 ------- 0 0.0 3.0 10 61
r 0.393928 2 3 cbr 210 ------- 0 0.0 3.0 7 55
- 0.39408 0 2 cbr 210 ------- 0 0.0 3.0 14 69
r 0.395067 1 2 cbr 210 ------- 0 1.0 3.0 60 80
+ 0.395067 2 3 cbr 210 ------- 0 1.0 3.0 60 80
- 0.395067 2 3 cbr 210 ------- 0 1.0 3.0 60 80
r 0.396485 2 3 cbr 210 ------- 0 1.0 3.0 55 70
+ 0.3975 1 2 cbr 210 ------- 0 1.0 3.0 66 92
- 0.3975 1 2 cbr 210 ------- 0 1.0 3.0 66 92
+ 0.3975 0 2 cbr 210 ------- 0 0.0 3.0 26 93
r 0.398817 1 2 cbr 210 ------- 0 1.0 3.0 61 82
+ 0.398817 2 3 cbr 210 ------- 0 1.0 3.0 61 82
- 0.398817 2 3 cbr 210 ------- 0 1.0 3.0 61 82
r 0.400235 2 3 cbr 210 ------- 0 1.0 3.0 56 72
r 0.40064 0 2 cbr 210 ------- 0 0.0 3.0 11 63
+ 0.40064 2 3 cbr 210 ------- 0 0.0 3.0 11 63
- 0.40064 2 3 cbr 210 ------- 0 0.0 3.0 11 63
r 0.400648 2 3 cbr 210 ------- 0 0.0 3.0 8 57
- 0.4008 0 2 cbr 210 ------- 0 0.0 3.0 15 71
+ 0.40125 1 2 cbr 210 ------- 0 1.0 3.0 67 94
- 0.40125 1 2 cbr 210 ------- 0 1.0 3.0 67 94
+ 0.40125 0 2 cbr 210 ------- 0 0.0 3.0 27 95
r 0.402567 1 2 cbr 210 ------- 0 1.0 3.0 62 84
+ 0.402567 2 3 cbr 210 ------- 0 1.0 3.0 62 84
- 0.402567 2 3 cbr 210 ------- 0 1.0 3.0 62 84
r 0.403985 2 3 cbr 210 ------- 0 1.0 3.0 57 74
+ 0.405 1 2 cbr 210 ------- 0 1.0 3.0 68 96
- 0.405 1 2 cbr 210 ------- 0 1.0 3.0 68 96
+ 0.405 0 2 cbr 210 ------- 0 0.0 3.0 28 97
r 0.406317 1 2 cbr 210 ------- 0 1.0 3.0 63 86
+ 0.406317 2 3 cbr 210 ------- 0 1.0 3.0 63 86
- 0.406317 2 3 cbr 210 ------- 0 1.0 3.0 63 86
r 0.40736 0 2 cbr 210 ------- 0 0.0 3.0 12 65
+ 0.40736 2 3 cbr 210 ------- 0 0.0 3.0 12 65
- 0.40736 2 3 cbr 210 ------- 0 0.0 3.0 12 65
r 0.407368 2 3 cbr 210 ------- 0 0.0 3.0 9 59
- 0.40752 0 2 cbr 210 ------- 0 0.0 3.0 16 73
r 0.407735 2 3 cbr 210 ------- 0 1.0 3.0 58 76
+ 0.40875 1 2 cbr 210 ------- 0 1.0 3.0 69 98
- 0.40875 1 2 cbr 210 ------- 0 1.0 3.0 69 98
+ 0.40875 0 2 cbr 210 ------- 0 0.0 3.0 29 99
r 0.410067 1 2 cbr 210 ------- 0 1.0 3.0 64 88
+ 0.410067 2 3 cbr 210 ------- 0 1.0 3.0 64 88
- 0.410067 2 3 cbr 210 ------- 0 1.0 3.0 64 88
r 0.411485 2 3 cbr 210 ------- 0 1.0 3.0 59 78
+ 0.4125 1 2 cbr 210 ------- 0 1.0 3.0 70 100
- 0.4125 1 2 cbr 210 ------- 0 1.0 3.0 70 100
+ 0.4125 0 2 cbr 210 ------- 0 0.0 3.0 30 101
r 0.413817 1 2 cbr 210 ------- 0 1.0 3.0 65 90
+ 0.413817 2 3 cbr 210 ------- 0 1.0 3.0 65 90
- 0.413817 2 3 cbr 210 ------- 0 1.0 3.0 65 90
r 0.41408 0 2 cbr 210 ------- 0 0.0 3.0 13 67
+ 0.41408 2 3 cbr 210 ------- 0 0.0 3.0 13 67
- 0.41408 2 3 cbr 210 ------- 0 0.0 3.0 13 67
r 0.414088 2 3 cbr 210 ------- 0 0.0 3.0 10 61
- 0.41424 0 2 cbr 210 ------- 0 0.0 3.0 17 75
r 0.415235 2 3 cbr 210 ------- 0 1.0 3.0 60 80
+ 0.41625 1 2 cbr 210 ------- 0 1.0 3.0 71 102
- 0.41625 1 2 cbr 210 ------- 0 1.0 3.0 71 102
+ 0.41625 0 2 cbr 210 ------- 0 0.0 3.0 31 103
r 0.417567 1 2 cbr 210 ------- 0 1.0 3.0 66 92
+ 0.417567 2 3 cbr 210 ------- 0 1.0 3.0 66 92
- 0.417567 2 3 cbr 210 ------- 0 1.0 3.0 66 92
r 0.418985 2 3 cbr 210 ------- 0 1.0 3.0 61 82
+ 0.42 1 2 cbr 210 ------- 0 1.0 3.0 72 104
- 0.42 1 2 cbr 210 ------- 0 1.0 3.0 72 104
+ 0.42 0 2 cbr 210 ------- 0 0.0 3.0 32 105
r 0.4208 0 2 cbr 210 ------- 0 0.0 3.0 14 69
+ 0.4208 2 3 cbr 210 ------- 0 0.0 3.0 14 69
- 0.4208 2 3 cbr 210 ------- 0 0.0 3.0 14 69
r 0.420808 2 3 cbr 210 ------- 0 0.0 3.0 11 63
- 0.42096 0 2 cbr 210 ------- 0 0.0 3.0 18 77
r 0.421317 1 2 cbr 210 ------- 0 1.0 3.0 67 94
+ 0.421317 2 3 cbr 210 ------- 0 1.0 3.0 67 94
- 0.421317 2 3 cbr 210 ------- 0 1.0 3.0 67 94
r 0.422735 2 3 cbr 210 ------- 0 1.0 3.0 62 84
+ 0.42375 1 2 cbr 210 ------- 0 1.0 3.0 73 106
- 0.42375 1 2 cbr 210 ------- 0 1.0 3.0 73 106
+ 0.42375 0 2 cbr 210 ------- 0 0.0 3.0 33 107
r 0.425067 1 2 cbr 210 ------- 0 1.0 3.0 68 96
+ 0.425067 2 3 cbr 210 ------- 0 1.0 3.0 68 96
- 0.425067 2 3 cbr 210 ------- 0 1.0 3.0 68 96
r 0.426485 2 3 cbr 210 ------- 0 1.0 3.0 63 86
+ 0.4275 1 2 cbr 210 ------- 0 1.0 3.0 74 108
- 0.4275 1 2 cbr 210 ------- 0 1.0 3.0 74 108
+ 0.4275 0 2 cbr 210 ------- 0 0.0 3.0 34 109
r 0.42752 0 2 cbr 210 ------- 0 0.0 3.0 15 71
+ 0.42752 2 3 cbr 210 ------- 0 0.0 3.0 15 71
- 0.42752 2 3 cbr 210 ------- 0 0.0 3.0 15 71
r 0.427528 2 3 cbr 210 ------- 0 0.0 3.0 12 65
- 0.42768 0 2 cbr 210 ------- 0 0.0 3.0 19 79
r 0.428817 1 2 cbr 210 ------- 0 1.0 3.0 69 98
+ 0.428817 2 3 cbr 210 ------- 0 1.0 3.0 69 98
- 0.428817 2 3 cbr 210 ------- 0 1.0 3.0 69 98
r 0.430235 2 3 cbr 210 ------- 0 1.0 3.0 64 88
+ 0.43125 1 2 cbr 210 ------- 0 1.0 3.0 75 110
- 0.43125 1 2 cbr 210 ------- 0 1.0 3.0 75 110
+ 0.43125 0 2 cbr 210 ------- 0 0.0 3.0 35 111
r 0.432567 1 2 cbr 210 ------- 0 1.0 3.0 70 100
+ 0.432567 2 3 cbr 210 ------- 0 1.0 3.0 70 100
- 0.432567 2 3 cbr 210 ------- 0 1.0 3.0 70 100
r 0.433985 2 3 cbr 210 ------- 0 1.0 3.0 65 90
r 0.43424 0 2 cbr 210 ------- 0 0.0 3.0 16 73
+ 0.43424 2 3 cbr 210 ------- 0 0.0 3.0 16 73
- 0.43424 2 3 cbr 210 ------- 0 0.0 3.0 16 73
r 0.434248 2 3 cbr 210 ------- 0 0.0 3.0 13 67
- 0.4344 0 2 cbr 210 ------- 0 0.0 3.0 20 81
+ 0.435 1 2 cbr 210 ------- 0 1.0 3.0 76 112
- 0.435 1 2 cbr 210 ------- 0 1.0 3.0 76 112
+ 0.435 0 2 cbr 210 ------- 0 0.0 3.0 36 113
r 0.436317 1 2 cbr 210 ------- 0 1.0 3.0 71 102
+ 0.436317 2 3 cbr 210 ------- 0 1.0 3.0 71 102
- 0.436317 2 3 cbr 210 ------- 0 1.0 3.0 71 102
r 0.437735 2 3 cbr 210 ------- 0 1.0 3.0 66 92
+ 0.43875 1 2 cbr 210 ------- 0 1.0 3.0 77 114
- 0.43875 1 2 cbr 210 ------- 0 1.0 3.0 77 114
+ 0.43875 0 2 cbr 210 ------- 0 0.0 3.0 37 115
r 0.440067 1 2 cbr 210 ------- 0 1.0 3.0 72 104
+ 0.440067 2 3 cbr 210 ------- 0 1.0 3.0 72 104
- 0.440067 2 3 cbr 210 ------- 0 1.0 3.0 72 104
r 0.44096 0 2 cbr 210 ------- 0 0.0 3.0 17 75
+ 0.44096 2 3 cbr 210 ------- 0 0.0 3.0 17 75
- 0.44096 2 3 cbr 210 ------- 0 0.0 3.0 17 75
r 0.440968 2 3 cbr 210 ------- 0 0.0 3.0 14 69
- 0.44112 0 2 cbr 210 ------- 0 0.0 3.0 21 83
r 0.441485 2 3 cbr 210 ------- 0 1.0 3.0 67 94
+ 0.4425 1 2 cbr 210 ------- 0 1.0 3.0 78 116
- 0.4425 1 2 cbr 210 ------- 0 1.0 3.0 78 116
+ 0.4425 0 2 cbr 210 ------- 0 0.0 3.0 38 117
r 0.443817 1 2 cbr 210 ------- 0 1.0 3.0 73 106
+ 0.443817 2 3 cbr 210 ------- 0 1.0 3.0 73 106
- 0.443817 2 3 cbr 210 ------- 0 1.0 3.0 73 106
r 0.445235 2 3 cbr 210 ------- 0 1.0 3.0 68 96
+ 0.44625 1 2 cbr 210 ------- 0 1.0 3.0 79 118
- 0.44625 1 2 cbr 210 ------- 0 1.0 3.0 79 118
+ 0.44625 0 2 cbr 210 ------- 0 0.0 3.0 39 119
r 0.447567 1 2 cbr 210 ------- 0 1.0 3.0 74 108
+ 0.447567 2 3 cbr 210 ------- 0 1.0 3.0 74 108
- 0.447567 2 3 cbr 210 ------- 0 1.0 3.0 74 108
r 0.44768 0 2 cbr 210 ------- 0 0.0 3.0 18 77
+ 0.44768 2 3 cbr 210 ------- 0 0.0 3.0 18 77
r 0.447688 2 3 cbr 210 ------- 0 0.0 3.0 15 71
- 0.447735 2 3 cbr 210 ------- 0 0.0 3.0 18 77
- 0.44784 0 2 cbr 210 ------- 0 0.0 3.0 22 85
r 0.448985 2 3 cbr 210 ------- 0 1.0 3.0 69 98
+ 0.45 1 2 cbr 210 ------- 0 1.0 3.0 80 120
- 0.45 1 2 cbr 210 ------- 0 1.0 3.0 80 120
+ 0.45 0 2 cbr 210 ------- 0 0.0 3.0 40 121
r 0.451317 1 2 cbr 210 ------- 0 1.0 3.0 75 110
+ 0.451317 2 3 cbr 210 ------- 0 1.0 3.0 75 110
- 0.451317 2 3 cbr 210 ------- 0 1.0 3.0 75 110
r 0.452735 2 3 cbr 210 ------- 0 1.0 3.0 70 100
+ 0.45375 1 2 cbr 210 ------- 0 1.0 3.0 81 122
- 0.45375 1 2 cbr 210 ------- 0 1.0 3.0 81 122
+ 0.45375 0 2 cbr 210 ------- 0 0.0 3.0 41 123
r 0.4544 0 2 cbr 210 ------- 0 0.0 3.0 19 79
+ 0.4544 2 3 cbr 210 ------- 0 0.0 3.0 19 79
- 0.4544 2 3 cbr 210 ------- 0 0.0 3.0 19 79
r 0.454408 2 3 cbr 210 ------- 0 0.0 3.0 16 73
- 0.45456 0 2 cbr 210 ------- 0 0.0 3.0 23 87
r 0.455067 1 2 cbr 210 ------- 0 1.0 3.0 76 112
+ 0.455067 2 3 cbr 210 ------- 0 1.0 3.0 76 112
- 0.455067 2 3 cbr 210 ------- 0 1.0 3.0 76 112
r 0.456485 2 3 cbr 210 ------- 0 1.0 3.0 71 102
+ 0.4575 1 2 cbr 210 ------- 0 1.0 3.0 82 124
- 0.4575 1 2 cbr 210 ------- 0 1.0 3.0 82 124
+ 0.4575 0 2 cbr 210 ------- 0 0.0 3.0 42 125
r 0.458817 1 2 cbr 210 ------- 0 1.0 3.0 77 114
+ 0.458817 2 3 cbr 210 ------- 0 1.0 3.0 77 114
- 0.458817 2 3 cbr 210 ------- 0 1.0 3.0 77 114
r 0.460235 2 3 cbr 210 ------- 0 1.0 3.0 72 104
r 0.46112 0 2 cbr 210 ------- 0 0.0 3.0 20 81
+ 0.46112 2 3 cbr 210 ------- 0 0.0 3.0 20 81
- 0.46112 2 3 cbr 210 ------- 0 0.0 3.0 20 81
r 0.461128 2 3 cbr 210 ------- 0 0.0 3.0 17 75
+ 0.46125 1 2 cbr 210 ------- 0 1.0 3.0 83 126
- 0.46125 1 2 cbr 210 ------- 0 1.0 3.0 83 126
+ 0.46125 0 2 cbr 210 ------- 0 0.0 3.0 43 127
- 0.46128 0 2 cbr 210 ------- 0 0.0 3.0 24 89
r 0.462567 1 2 cbr 210 ------- 0 1.0 3.0 78 116
+ 0.462567 2 3 cbr 210 ------- 0 1.0 3.0 78 116
- 0.462567 2 3 cbr 210 ------- 0 1.0 3.0 78 116
r 0.463985 2 3 cbr 210 ------- 0 1.0 3.0 73 106
+ 0.465 1 2 cbr 210 ------- 0 1.0 3.0 84 128
- 0.465 1 2 cbr 210 ------- 0 1.0 3.0 84 128
+ 0.465 0 2 cbr 210 ------- 0 0.0 3.0 44 129
r 0.466317 1 2 cbr 210 ------- 0 1.0 3.0 79 118
+ 0.466317 2 3 cbr 210 ------- 0 1.0 3.0 79 118
- 0.466317 2 3 cbr 210 ------- 0 1.0 3.0 79 118
r 0.467735 2 3 cbr 210 ------- 0 1.0 3.0 74 108
r 0.46784 0 2 cbr 210 ------- 0 0.0 3.0 21 83
+ 0.46784 2 3 cbr 210 ------- 0 0.0 3.0 21 83
- 0.46784 2 3 cbr 210 ------- 0 0.0 3.0 21 83
r 0.467903 2 3 cbr 210 ------- 0 0.0 3.0 18 77
- 0.468 0 2 cbr 210 ------- 0 0.0 3.0 25 91
+ 0.46875 1 2 cbr 210 ------- 0 1.0 3.0 85 130
- 0.46875 1 2 cbr 210 ------- 0 1.0 3.0 85 130
+ 0.46875 0 2 cbr 210 ------- 0 0.0 3.0 45 131
r 0.470067 1 2 cbr 210 ------- 0 1.0 3.0 80 120
+ 0.470067 2 3 cbr 210 ------- 0 1.0 3.0 80 120
- 0.470067 2 3 cbr 210 ------- 0 1.0 3.0 80 120
r 0.471485 2 3 cbr 210 ------- 0 1.0 3.0 75 110
+ 0.4725 1 2 cbr 210 ------- 0 1.0 3.0 86 132
- 0.4725 1 2 cbr 210 ------- 0 1.0 3.0 86 132
+ 0.4725 0 2 cbr 210 ------- 0 0.0 3.0 46 133